Use ./sciantix.x ../input_path/ in the working directory
OpenCalphad attempt for 'matrix' with WARM-START

[OC input] ./OCinput_matrix.OCM
----------------------------------------
@$ Initialize variables:
r t /home/ecappellari/transparant/opencalphad/data/O-Pu-UPaper o pu u

set ref o gas * 100000

set c t=1140
set c p=200000
set c n(o)=0.663866
set c n(pu)=0.0963509
set c n(u)=0.239784
c e
c w

save u ./OCoutput_matrix Y

l /out=./OCoutput_matrix.DAT r 1

fin
----------------------------------------

3A unfished preparations for XTDB


Open Calphad (OC) software version   6.106 , linked 2026-04-16
with command line monitor version  73

This program is available with a GNU General Public License.
either version 2 of the License, or any later version.
It includes the General Thermodynamic Package, version GTP-3.31,
Hillert's equilibrium calculation algorithm version HMS-3.0 ,
step/map/plot software version SMP-2.30 using GNUPLOT 5.2 graphics.
Numerical routines are extracted from LAPACK and BLAS and
the assessment procedure uses LMDIF from ANL.

Linked with OpenMp for parallel execution
 Warning, no environment variable OCHOME and no help file
 Working directory is: /home/ecappellari/transparant/sciantix-official/regression/test_JOG_MOX/point_09_r_2p5mm
--->OC6:--->OC6: 3E Database file extention is: ".tdb"

This database has information to users, please read carefully
Database modified by Pauline Fouquet-Metivier et al, Calphad (2022)
Only for the liquid phase of Pu-O and U-Pu-O systems

 ELEMENT /-   ELECTRON_GAS              0.0000E+00  0.0000E+00  0.0000E+00!

Database has  5 elements: O  PU U  AR N 
Give the elements to select, finish with empty line
Selected  3 elements: O  PU U 
Select elements /no more/:Selected  3 elements: O  PU U 
3E reading database file: /home/ecappellari/transparant/opencalphad/data/O-Pu-UPaper.TDB
 3B insering interaction before existing F

Out of   115 model parameters   108 have been entered


There are    17 bibliographic references
REF161          '*** Not set by database or user'
REF178          '*** Not set by database or user'
REF175          '*** Not set by database or user'
REF176          '*** Not set by database or user'
REF177          '*** Not set by database or user'
REF203          'O1PU1<G> T.C.R.A.S. Class: 6, from SSUB, id to Tbase'
REF204          'O2PU1<G> T.C.R.A.S. Class: 7 PLUTONIUM DIOXIDE <GAS>, from 
                 SSUB, id to Tbase'
REF209          'O1U1<G> T.C.R.A.S Class: 6 Data provided by T.C.R.A.S. in 
                 2000, from SSUB, different of Tbase'
REF210          'O2U1<G> T.C.R.A.S. Class: 6 URANIUM DIOXIDE <GAS>, from 
                 SSUB, slightly different of Tbase'
REF211          'O3U1<G> T.C.R.A.S Class: 6 Data provided by T.C.R.A.S. in 
                 2000, from SSUB, different of Tbase'
REF10           'A T Dinsdale, SGTE Data for Pure Elements, Calphad 15(1991)4 
                 p 317-425; also in NPL Report DMA(A)195 Rev. August 1990'
FOUQ            'P. Fouquet-Metivier et al, Calphad (2022)'
REF412          'C. Gueneau, N. Dupin, B. Sundman, C. Martial, J.-C. Dumas, 
                 S. Gosse, S. Chatain, F. De Bruycker, D. Manara, R.J.M. 
                 Konings, J. Nucl. Mat. 419 (1-3), 145-167 (2011); C-O-Pu-U'
REF37           'M. Kurata, Calphad, 23 (3-4), 305-337 1999'
REF115          '*** Not set by database or user'
REF92           'N. Dupin, Contrat CEA 4000294936/P5B73 Np-Pu Fuelbase, 
                 february REF115'
REF137          '*** Not set by database or user'

--->OC6:--->OC6:--->OC6:--->OC6:--->OC6:--->OC6:--->OC6:--->OC6:3Y Removed  2 gridpoints by merging
Gridmin:    7483 points   9.37E-03 s and       8 clockcycles, T= 1140.00
 3Y leaving global_gridmin
Equilibrium result:  15 its,  1.0075E-02 s,     10 cc, GS= -4.0902280E+05 J/mol
--->OC6:Equilibrium result:   9 its,  4.4500E-04 s,      0 cc, GS= -4.0902280E+05 J/mol
3Y Testing if any gridpoint is below the calculated equilibrium
--->OC6:--->OC6:3E allocating workspace:     122160          (   2160,   10000,    2)
 3E saving            3  symbols as texts
 3E used        12112  words out of       122160  for storing static data
 ceqrecsize not implemented          25
 3E Saving an equilibrium record requires     2613       0 words
 3E not storing unused equilibria from:            2
 3E Saving assessment record
 3E No experimental equilibrium range set
 3E allocating assessment head record          48
 3E no coefficients allocated
 3E no work array (assrec%wopt) allocated
Used    14813 words out of   122160,  12.13% for unformatted memory save
Written workspace      59252 bytes unformatted on ./OCoutput_matrix.OCU
--->OC6:--->OC6:Output on file: ./OCoutput_matrix.DAT
Output unit reset to screen:    6
--->OC6:--->OC6:
[OC output] ./OCoutput_matrix.DAT
----------------------------------------

%%%%%%%%%% OC output written: 2026-04-20  09h53

Output for equilibrium:   1, DEFAULT_EQUILIBRIUM          2026.04.20
Conditions .................................................:
  1:T=1140, 2:P=200000, 3:N(O)=0.663866, 4:N(PU)=.0963509, 5:N(U)=0.239784
 Degrees of freedom are   0

Some global data, reference state SER ......................:
T=   1140.00 K (   866.85 C), P=  2.0000E+05 Pa, V=  0.0000E+00 m3
N=   1.0000E+00 moles, B=   9.1212E+01 g, RT=   9.4785E+03 J/mol
G= -4.09023E+05 J, G/N=-4.0902E+05 J/mol, H=-3.3738E+05 J, S= 6.284E+01 J/K

Some data for components ...................................:
Component name    Moles      Mole-fr  Chem.pot/RT  Activities  Ref.state
O                 6.6387E-01  0.66387 -3.2362E+01  8.8172E-15  GAS             
PU                9.6351E-02  0.09635 -3.7968E+01  3.2423E-17  SER (default)   
U                 2.3978E-01  0.23978 -3.8783E+01  1.4342E-17  SER (default)   

Some data for phases .......................................:
Name                Status Moles      Volume    Form.Units Cmp/FU dGm/RT  Comp:
C1_MO2.................. E  1.000E+00  0.00E+00  3.36E-01    2.97  0.00E+00  X:
 O      6.63865E-01  U      2.39784E-01  PU     9.63508E-02


----------------------------------------

[OC parser] Parsed components
  O : moles=0.66387, x=0.66387, mu/RT=-32.362, activity=8.8172e-15, ref=GAS
  Pu : moles=0.096351, x=0.09635, mu/RT=-37.968, activity=3.2423e-17, ref=SER (default)
  U : moles=0.23978, x=0.23978, mu/RT=-38.783, activity=1.4342e-17, ref=SER (default)

[OC parser] Parsed phases
  Phase condensed : moles=1, volume=0
    Elements
      O = 1.97168
      Pu = 0.286162
      U = 0.712158
    Species
      C1_MO2 : moles=1, volume=0
        O = 1.97168
        Pu = 0.286162
        U = 0.712158
[Thermochemistry] C1_MO2 (condensed, matrix) composition=O:1.9716791,Pu:0.28616188,U:0.71215848 molar_mass=269.467 g/mol
OpenCalphad attempt for 'matrix' with WARM-START

[OC input] ./OCinput_matrix.OCM
----------------------------------------
r u ./OCoutput_matrix.OCU

set ref o gas * 100000

set c t=1140
set c p=268000
set c n(o)=0.664146
set c n(pu)=0.0959685
set c n(u)=0.239885
c e
c w

save u ./OCoutput_matrix Y

l /out=./OCoutput_matrix.DAT r 1

fin
----------------------------------------

3A unfished preparations for XTDB


Open Calphad (OC) software version   6.106 , linked 2026-04-16
with command line monitor version  73

This program is available with a GNU General Public License.
either version 2 of the License, or any later version.
It includes the General Thermodynamic Package, version GTP-3.31,
Hillert's equilibrium calculation algorithm version HMS-3.0 ,
step/map/plot software version SMP-2.30 using GNUPLOT 5.2 graphics.
Numerical routines are extracted from LAPACK and BLAS and
the assessment procedure uses LMDIF from ANL.

Linked with OpenMp for parallel execution
 Warning, no environment variable OCHOME and no help file
 Working directory is: /home/ecappellari/transparant/sciantix-official/regression/test_JOG_MOX/point_09_r_2p5mm
--->OC6:
Read unformatted file: This is a save file for OC version:     OCF-3.20
Generated:  2026.04.20 09h53

 3E reading unformatted:        14778           0           0
3E Addition type   1, Inden-Hillert magn model for BCC_A2
3E Addition type   1, Inden-Hillert magn model for FCC_A1
 3E no experimental data
 3E no coefficient values saved
 3E Read assessment record
 No coefficients allocated
--->OC6:--->OC6:--->OC6:--->OC6:--->OC6:--->OC6:--->OC6:--->OC6:--->OC6:3Y Removed  2 gridpoints by merging
Gridmin:    7483 points   9.05E-03 s and       7 clockcycles, T= 1140.00
 3Y leaving global_gridmin
Equilibrium result:  15 its,  1.0114E-02 s,     10 cc, GS= -4.0904214E+05 J/mol
--->OC6:Equilibrium result:   9 its,  2.9700E-04 s,      0 cc, GS= -4.0904214E+05 J/mol
3Y Testing if any gridpoint is below the calculated equilibrium
--->OC6:--->OC6:
Overwriting previous results on ./OCoutput_matrix.OCU
3E allocating workspace:     122160          (   2160,   10000,    2)
 3E saving            3  symbols as texts
 3E used        12112  words out of       122160  for storing static data
 ceqrecsize not implemented          25
 3E Saving an equilibrium record requires     2613       0 words
 3E not storing unused equilibria from:            2
 3E Saving assessment record
 3E No experimental equilibrium range set
 3E allocating assessment head record          48
 3E no coefficients allocated
 3E no work array (assrec%wopt) allocated
Used    14813 words out of   122160,  12.13% for unformatted memory save
Written workspace      59252 bytes unformatted on ./OCoutput_matrix.OCU
--->OC6:--->OC6:Output on file: ./OCoutput_matrix.DAT
Output unit reset to screen:    6
--->OC6:--->OC6:
[OC output] ./OCoutput_matrix.DAT
----------------------------------------

%%%%%%%%%% OC output written: 2026-04-20  09h53

Output for equilibrium:   1, DEFAULT_EQUILIBRIUM          2026.04.20
Conditions .................................................:
  1:T=1140, 2:P=268000, 3:N(O)=0.664146, 4:N(PU)=.0959685, 5:N(U)=0.239885
 Degrees of freedom are   0

Some global data, reference state SER ......................:
T=   1140.00 K (   866.85 C), P=  2.6800E+05 Pa, V=  0.0000E+00 m3
N=   1.0000E+00 moles, B=   9.1148E+01 g, RT=   9.4785E+03 J/mol
G= -4.09042E+05 J, G/N=-4.0904E+05 J/mol, H=-3.3749E+05 J, S= 6.277E+01 J/K

Some data for components ...................................:
Component name    Moles      Mole-fr  Chem.pot/RT  Activities  Ref.state
O                 6.6415E-01  0.66415 -3.2280E+01  9.5698E-15  GAS             
PU                9.5968E-02  0.09597 -3.8415E+01  2.0720E-17  SER (default)   
U                 2.3989E-01  0.23989 -3.9236E+01  9.1230E-18  SER (default)   

Some data for phases .......................................:
Name                Status Moles      Volume    Form.Units Cmp/FU dGm/RT  Comp:
C1_MO2.................. E  1.000E+00  0.00E+00  3.36E-01    2.98  0.00E+00  X:
 O      6.64146E-01  U      2.39885E-01  PU     9.59685E-02


----------------------------------------

[OC parser] Parsed components
  O : moles=0.66415, x=0.66415, mu/RT=-32.28, activity=9.5698e-15, ref=GAS
  Pu : moles=0.095968, x=0.09597, mu/RT=-38.415, activity=2.072e-17, ref=SER (default)
  U : moles=0.23989, x=0.23989, mu/RT=-39.236, activity=9.123e-18, ref=SER (default)

[OC parser] Parsed phases
  Phase condensed : moles=1, volume=0
    Elements
      O = 1.97916
      Pu = 0.285986
      U = 0.714857
    Species
      C1_MO2 : moles=1, volume=0
        O = 1.97916
        Pu = 0.285986
        U = 0.714857
OpenCalphad attempt for 'matrix' with WARM-START

[OC input] ./OCinput_matrix.OCM
----------------------------------------
r u ./OCoutput_matrix.OCU

set ref o gas * 100000

set c t=1140
set c p=336000
set c n(o)=0.664428
set c n(pu)=0.0955858
set c n(u)=0.239987
c e
c w

save u ./OCoutput_matrix Y

l /out=./OCoutput_matrix.DAT r 1

fin
----------------------------------------

3A unfished preparations for XTDB


Open Calphad (OC) software version   6.106 , linked 2026-04-16
with command line monitor version  73

This program is available with a GNU General Public License.
either version 2 of the License, or any later version.
It includes the General Thermodynamic Package, version GTP-3.31,
Hillert's equilibrium calculation algorithm version HMS-3.0 ,
step/map/plot software version SMP-2.30 using GNUPLOT 5.2 graphics.
Numerical routines are extracted from LAPACK and BLAS and
the assessment procedure uses LMDIF from ANL.

Linked with OpenMp for parallel execution
 Warning, no environment variable OCHOME and no help file
 Working directory is: /home/ecappellari/transparant/sciantix-official/regression/test_JOG_MOX/point_09_r_2p5mm
--->OC6:
Read unformatted file: This is a save file for OC version:     OCF-3.20
Generated:  2026.04.20 09h53

 3E reading unformatted:        14778           0           0
3E Addition type   1, Inden-Hillert magn model for BCC_A2
3E Addition type   1, Inden-Hillert magn model for FCC_A1
 3E no experimental data
 3E no coefficient values saved
 3E Read assessment record
 No coefficients allocated
--->OC6:--->OC6:--->OC6:--->OC6:--->OC6:--->OC6:--->OC6:--->OC6:--->OC6:3Y Removed  2 gridpoints by merging
Gridmin:    7483 points   8.78E-03 s and       7 clockcycles, T= 1140.00
 3Y leaving global_gridmin
Equilibrium result:  15 its,  9.3890E-03 s,      9 cc, GS= -4.0906070E+05 J/mol
--->OC6:Equilibrium result:   9 its,  2.9000E-04 s,      0 cc, GS= -4.0906070E+05 J/mol
3Y Testing if any gridpoint is below the calculated equilibrium
--->OC6:--->OC6:
Overwriting previous results on ./OCoutput_matrix.OCU
3E allocating workspace:     122160          (   2160,   10000,    2)
 3E saving            3  symbols as texts
 3E used        12112  words out of       122160  for storing static data
 ceqrecsize not implemented          25
 3E Saving an equilibrium record requires     2613       0 words
 3E not storing unused equilibria from:            2
 3E Saving assessment record
 3E No experimental equilibrium range set
 3E allocating assessment head record          48
 3E no coefficients allocated
 3E no work array (assrec%wopt) allocated
Used    14813 words out of   122160,  12.13% for unformatted memory save
Written workspace      59252 bytes unformatted on ./OCoutput_matrix.OCU
--->OC6:--->OC6:Output on file: ./OCoutput_matrix.DAT
Output unit reset to screen:    6
--->OC6:--->OC6:
[OC output] ./OCoutput_matrix.DAT
----------------------------------------

%%%%%%%%%% OC output written: 2026-04-20  09h53

Output for equilibrium:   1, DEFAULT_EQUILIBRIUM          2026.04.20
Conditions .................................................:
  1:T=1140, 2:P=336000, 3:N(O)=0.664428, 4:N(PU)=.0955858, 5:N(U)=0.239987
 Degrees of freedom are   0

Some global data, reference state SER ......................:
T=   1140.00 K (   866.85 C), P=  3.3600E+05 Pa, V=  0.0000E+00 m3
N=   1.0000E+00 moles, B=   9.1083E+01 g, RT=   9.4785E+03 J/mol
G= -4.09061E+05 J, G/N=-4.0906E+05 J/mol, H=-3.3760E+05 J, S= 6.269E+01 J/K

Some data for components ...................................:
Component name    Moles      Mole-fr  Chem.pot/RT  Activities  Ref.state
O                 6.6443E-01  0.66443 -3.2136E+01  1.1050E-14  GAS             
PU                9.5586E-02  0.09559 -3.8920E+01  1.2505E-17  SER (default)   
U                 2.3999E-01  0.23999 -3.9745E+01  5.4797E-18  SER (default)   

Some data for phases .......................................:
Name                Status Moles      Volume    Form.Units Cmp/FU dGm/RT  Comp:
C1_MO2.................. E  1.000E+00  0.00E+00  3.36E-01    2.98  0.00E+00  X:
 O      6.64427E-01  U      2.39987E-01  PU     9.55857E-02


----------------------------------------

[OC parser] Parsed components
  O : moles=0.66443, x=0.66443, mu/RT=-32.136, activity=1.105e-14, ref=GAS
  Pu : moles=0.095586, x=0.09559, mu/RT=-38.92, activity=1.2505e-17, ref=SER (default)
  U : moles=0.23999, x=0.23999, mu/RT=-39.745, activity=5.4797e-18, ref=SER (default)

[OC parser] Parsed phases
  Phase condensed : moles=1, volume=0
    Elements
      O = 1.97999
      Pu = 0.284845
      U = 0.715161
    Species
      C1_MO2 : moles=1, volume=0
        O = 1.97999
        Pu = 0.284845
        U = 0.715161
OpenCalphad attempt for 'at grain boundary' with WARM-START

[OC input] ./OCinput_fission_products.OCM
----------------------------------------
@$ Initialize variables:
r t /home/ecappellari/transparant/opencalphad/data/CsMoO_TAFID_2021_Anna cs mo o

set ref o gas * 100000

set c t=1140
set c p=336000
set c n(cs)=1.49628e-05
set c n(mo)=2.00955e-05
set c n(o)=0.999965
c e
set c n(o)=none
set c mu(o)=-609189

c w

save u ./OCoutput_fission_products Y

l /out=./OCoutput_fission_products.DAT r 1

fin
----------------------------------------

3A unfished preparations for XTDB


Open Calphad (OC) software version   6.106 , linked 2026-04-16
with command line monitor version  73

This program is available with a GNU General Public License.
either version 2 of the License, or any later version.
It includes the General Thermodynamic Package, version GTP-3.31,
Hillert's equilibrium calculation algorithm version HMS-3.0 ,
step/map/plot software version SMP-2.30 using GNUPLOT 5.2 graphics.
Numerical routines are extracted from LAPACK and BLAS and
the assessment procedure uses LMDIF from ANL.

Linked with OpenMp for parallel execution
 Warning, no environment variable OCHOME and no help file
 Working directory is: /home/ecappellari/transparant/sciantix-official/regression/test_JOG_MOX/point_09_r_2p5mm
--->OC6:--->OC6: 3E Database file extention is: ".tdb"
Database has  3 elements: CS MO O 
Give the elements to select, finish with empty line
Selected  3 elements: CS MO O 
Select elements /no more/:Selected  3 elements: CS MO O 
3E reading database file: /home/ecappellari/transparant/opencalphad/data/CsMoO_TAFID_2021_Anna.TDB

Out of    82 model parameters    82 have been entered


There are     1 bibliographic references
REF0            '*** Not set by database or user'

--->OC6:--->OC6:--->OC6:--->OC6:--->OC6:--->OC6:--->OC6:--->OC6:Gridmin:    9683 points   1.13E-02 s and      11 clockcycles, T= 1140.00
 3Y leaving global_gridmin
Phase change iteration:    13  +LIQUID
Phase change iteration:    14  +LIQUID
Phase change iteration:    15  +LIQUID
Phase change iteration:    16  +LIQUID
MM Too many stable phases at iter  16, phase   8 replaced by   2, T=  1140.00
Phase change iteration:    20  -CS2MOO4_S2
Equilibrium result:  47 its,  1.3309E-02 s,     13 cc, GS= -1.2192303E+05 J/mol
--->OC6:--->OC6:--->OC6:--->OC6:Phase change iteration:     4  -GAS
Phase change iteration:     8  +BCC_A2
Phase change iteration:    12  -BCC_A2
Phase change iteration:    13  +BCC_A2
Phase change iteration:    17  +CS7O1
Phase change iteration:    18  +CS7O1
Phase change iteration:    19  +CS7O1
Phase change iteration:    20  +FCC_A1
MM Too many stable phases at iter  20, phase   3 replaced by  24, T=  1140.00
Phase change iteration:    24  -FCC_A1
Phase change iteration:    28  +BCC_A2
Phase change iteration:    32  +FCC_A1
Phase change iteration:    33  +FCC_A1
Phase change iteration:    34  +FCC_A1
Phase change iteration:    35  +FCC_A1
MM Too many stable phases at iter  35, phase   3 replaced by  24, T=  1140.00
Phase change iteration:    39  -FCC_A1
MM Removing phase:   24  24#1
Phase change iteration:    43  +MC_ETA
Phase change iteration:    47  +BCC_A2
Phase change iteration:    48  +BCC_A2
MM Removing phase:    3   3#1
Phase change iteration:    50  +HCP_A3
Phase change iteration:    51  +HCP_A3
MM Too many stable phases at iter  51, phase  26 replaced by  25, T=  1140.00
Phase change iteration:    55  -HCP_A3
Phase change iteration:    59  +CS7O1
Phase change iteration:    63  +HCP_A3
Phase change iteration:    64  +HCP_A3
Phase change iteration:    65  +HCP_A3
MM Removing phase:   25  25#1
Phase change iteration:    67  +MC_ETA
MM Too many stable phases at iter  67, phase  18 replaced by  26, T=  1140.00
Phase change iteration:    71  +CS7O1
MM Removing phase:   18  18#1
Phase change iteration:    73  +CS4O
Phase change iteration:    74  +CS4O
Phase change iteration:    75  +CS4O
MM Too many stable phases at iter  75, phase  26 replaced by  17, T=  1140.00
Phase change iteration:    79  -CS4O
Phase change iteration:    83  +MC_ETA
Phase change iteration:    87  -MC_ETA
Phase change iteration:    88  +MC_ETA
Phase change iteration:    92  -MC_ETA
Phase change iteration:    93  +MC_ETA
Phase change iteration:    97  -MC_ETA
MM Removing phase:   26  26#1
Phase change iteration:   101  +TETRAGONAL_U
Phase change iteration:   105  -TETRAGONAL_U
Phase change iteration:   106  +TETRAGONAL_U
Phase change iteration:   110  -TETRAGONAL_U
Phase change iteration:   111  +TETRAGONAL_U
Phase change iteration:   115  -TETRAGONAL_U
Phase change iteration:   116  +TETRAGONAL_U
Phase change iteration:   120  -TETRAGONAL_U
Phase change iteration:   121  +TETRAGONAL_U
Phase change iteration:   125  -TETRAGONAL_U
MM Removing phase:   37  37#1
Phase change iteration:   129  +MO3TE4
Phase change iteration:   133  -MO3TE4
Phase change iteration:   134  +MO3TE4
Phase change iteration:   138  -MO3TE4
Phase change iteration:   139  +MO3TE4
Phase change iteration:   143  -MO3TE4
Phase change iteration:   144  +MO3TE4
Phase change iteration:   148  -MO3TE4
Phase change iteration:   149  +MO3TE4
Phase change iteration:   153  -MO3TE4
MM Removing phase:   27  27#1
Phase change iteration:   157  +MOTE2_A
Phase change iteration:   161  -MOTE2_A
Phase change iteration:   162  +MOTE2_A
Phase change iteration:   166  -MOTE2_A
Phase change iteration:   167  +MOTE2_A
Phase change iteration:   171  -MOTE2_A
Phase change iteration:   172  +MOTE2_A
Phase change iteration:   176  -MOTE2_A
Phase change iteration:   177  +MOTE2_A
Phase change iteration:   181  -MOTE2_A
MM Removing phase:   33  33#1
Phase change iteration:   185  +MOTE2_B
Phase change iteration:   189  -MOTE2_B
Phase change iteration:   190  +MOTE2_B
Phase change iteration:   194  -MOTE2_B
Phase change iteration:   195  +MOTE2_B
Phase change iteration:   199  -MOTE2_B
Phase change iteration:   200  +MOTE2_B
Phase change iteration:   204  -MOTE2_B
Phase change iteration:   205  +MOTE2_B
Phase change iteration:   209  +CS4O
Phase change iteration:   210  +CS4O
MM Removing phase:   17  17#1
Phase change iteration:   212  +CS7O2
Phase change iteration:   213  +CS7O2
MM Too many stable phases at iter 213, phase  34 replaced by  19, T=  1140.00
Phase change iteration:   217  -CS7O2
MM Removing phase:   34  34#1
Phase change iteration:   222  +ORTHORHOMBIC_A20
Phase change iteration:   226  +CS7O2
Phase change iteration:   227  +CS7O2
Phase change iteration:   228  +CS7O2
MM Removing phase:   19  19#1
Phase change iteration:   230  +CS3O
MM Too many stable phases at iter 230, phase  35 replaced by  16, T=  1140.00
Phase change iteration:   234  -CS3O
Phase change iteration:   238  +ORTHORHOMBIC_A20
Phase change iteration:   242  -ORTHORHOMBIC_A20
Phase change iteration:   243  +ORTHORHOMBIC_A20
Phase change iteration:   247  -ORTHORHOMBIC_A20
Phase change iteration:   248  +ORTHORHOMBIC_A20
Phase change iteration:   252  -ORTHORHOMBIC_A20
Phase change iteration:   253  +ORTHORHOMBIC_A20
Phase change iteration:   257  -ORTHORHOMBIC_A20
MM Removing phase:   35  35#1
Phase change iteration:   261  +DIS_SIG
Phase change iteration:   265  +CS3O
Phase change iteration:   266  +CS3O
Phase change iteration:   267  +CS3O
Phase change iteration:   268  +CS3O
MM Too many stable phases at iter 268, phase  23 replaced by  16, T=  1140.00
Phase change iteration:   272  -CS3O
Phase change iteration:   276  +DIS_SIG
MM Removing phase:   16  16#1
Phase change iteration:   281  +CS2O1
Phase change iteration:   293  +GAS
Phase change iteration:   294  +GAS
Phase change iteration:   295  +GAS
MM Too many stable phases at iter 295, phase   2 replaced by   1, T=  1140.00
MM Restoring phase:     16   16  CS3O
MM Restoring phase:     35   35  ORTHORHOMBIC_A20       2.2155E-01
MM Restoring phase:     19   19  CS7O2
MM Restoring phase:     34   34  MOTE2_B       2.2155E-01
MM Restoring phase:     17   17  CS4O
MM Restoring phase:     33   33  MOTE2_A       2.2155E-01
MM Restoring phase:     27   27  MO3TE4       2.2155E-01
MM Restoring phase:     37   37  TETRAGONAL_U       3.9036E-01
MM Restoring phase:     26   26  MC_ETA       6.5219E-01
MM Restoring phase:     18   18  CS7O1
MM Restoring phase:     25   25  HCP_A3       1.2063E+00
MM Restoring phase:      3    3  BCC_A2       2.3318E+00
MM Restoring phase:     24   24  FCC_A1       8.0790E-01
 MM warning, a restored phase wants to be stable:          24

Error codes:   4363     0    50
Message: No equilibrium, a restored phase should be stable

--->OC6:--->OC6:3E allocating workspace:     123330          (   3330,   10000,    2)
 3E saving            3  symbols as texts
 3E used        12281  words out of       123330  for storing static data
 ceqrecsize not implemented          38
 3E Saving an equilibrium record requires     3979       0 words
 3E not storing unused equilibria from:            2
 3E Saving assessment record
 3E No experimental equilibrium range set
 3E allocating assessment head record          48
 3E no coefficients allocated
 3E no work array (assrec%wopt) allocated
Used    16348 words out of   123330,  13.26% for unformatted memory save
Written workspace      65392 bytes unformatted on ./OCoutput_fission_products.OCU
--->OC6:--->OC6:Output on file: ./OCoutput_fission_products.DAT

Output unit reset to screen:    6
--->OC6:--->OC6:
[OC output] ./OCoutput_fission_products.DAT
----------------------------------------

%%%%%%%%%% OC output written: 2026-04-20  09h53

Output for equilibrium:   1, DEFAULT_EQUILIBRIUM          2026.04.20

 *** The results below are not a valid equilibrium as last calculation failed

Conditions .................................................:
  1:T=1140, 2:P=336000, 3:N(CS)=1.49628E-05, 4:N(MO)=2.00955E-05, 5:MU(O)=
    -609189
 Degrees of freedom are   0

Some global data, reference state SER ......................:
T=   1140.00 K (   866.85 C), P=  3.3600E+05 Pa, V=  3.9203E-07 m3
N=   3.5058E-05 moles, B=   3.9167E-03 g, RT=   9.4785E+03 J/mol
G= -2.46933E+00 J, G/N=-7.0435E+04 J/mol, H= 2.2566E+00 J, S= 4.146E-03 J/K

Some data for components ...................................:
Component name    Moles      Mole-fr  Chem.pot/RT  Activities  Ref.state
CS                1.4963E-05  0.42680 -1.3424E+01  1.4797E-06  SER (default)   
MO                2.0096E-05  0.57320 -2.9689E+00  5.1359E-02  SER (default)   
O                 4.1562E-26  0.00000 -6.4270E+01  1.2239E-28  GAS             

Some data for phases .......................................:
Name                Status Moles      Volume    Form.Units Cmp/FU dGm/RT  Comp:
GAS..................... E  1.496E-05  3.92E-07  1.39E-05    1.08  0.00E+00  X:
 CS     1.00000E+00  O      2.77767E-21  MO     1.47317E-22
Constitution: There are    18 constituents:
 CS           9.23300E-01  MO2          1.00000E-30  MOO2         1.00000E-30
 CS2          7.67001E-02  MO2O6        1.00000E-30  MOO3         1.00000E-30
 CS2O         2.99072E-21  MO3O9        1.00000E-30  O            1.00000E-30
 MO           1.58616E-22  MO4O12       1.00000E-30  O2           1.00000E-30
 CSO          5.61711E-28  MO5O15       1.00000E-30  O3           1.00000E-30
 CS2O2        1.00000E-30  MOO          1.00000E-30  CS2MOO4      1.00000E-30

BCC_A2.................. E  0.000E+00  0.00E+00  0.00E+00    1.00  2.33E+00  X:
 MO     9.99801E-01  CS     1.98575E-04  O      3.30066E-12

DIS_SIG................. E  2.010E-05  0.00E+00  2.01E-05    1.00  0.00E+00  X:
 MO     1.00000E+00  O      0.00000E+00  CS     0.00000E+00

FCC_A1.................. E  0.000E+00  0.00E+00  0.00E+00    1.00  8.08E-01  X:
 MO     8.55805E-01  CS     1.44195E-01  O      1.10044E-12

HCP_A3.................. E  0.000E+00  0.00E+00  0.00E+00    1.00  1.21E+00  X:
 MO     9.11001E-01  CS     8.89992E-02  O      5.50440E-13

MC_ETA.................. E  0.000E+00  0.00E+00  0.00E+00    1.00  6.52E-01  X:
 MO     1.00000E+00  O      0.00000E+00  CS     0.00000E+00

MO3TE4.................. E  0.000E+00  0.00E+00  0.00E+00    7.00  3.17E-02  X:
 MO     1.00000E+00  O      0.00000E+00  CS     0.00000E+00

MOTE2_A................. E  0.000E+00  0.00E+00  0.00E+00    3.00  7.39E-02  X:
 MO     1.00000E+00  O      0.00000E+00  CS     0.00000E+00

MOTE2_B................. E  0.000E+00  0.00E+00  0.00E+00    3.00  7.39E-02  X:
 MO     1.00000E+00  O      0.00000E+00  CS     0.00000E+00

ORTHORHOMBIC_A20........ E  0.000E+00  0.00E+00  0.00E+00    1.00  2.22E-01  X:
 MO     1.00000E+00  O      0.00000E+00  CS     0.00000E+00

TETRAGONAL_U............ E  0.000E+00  0.00E+00  0.00E+00    1.00  3.90E-01  X:
 MO     1.00000E+00  O      0.00000E+00  CS     0.00000E+00


 *** There are phase(s) which would like to be stable:
   BCC_A2  2.3318E+00   FCC_A1  8.0790E-01   HCP_A3  1.2063E+00   MC_ETA  6.5219E-01   MO3TE4  3.1650E-02   MOTE2_A  7.3851E-02   MOTE2_B  7.3851E-02   ORTHORHOMBIC_A20  2.2155E-01   TETRAGONAL_U  3.9036E-01
 *** The results above are not a valid equilibrium as last calculation failed


----------------------------------------
Warning: OpenCalphad returned an invalid equilibrium for location 'at grain boundary' using WARM-START.
Captured fallback N(O)=4.1562e-26 from invalid MU(O) output for location 'at grain boundary'.
OpenCalphad attempt for 'at grain boundary' with COLD-START

[OC input] ./OCinput_fission_products.OCM
----------------------------------------
@$ Initialize variables:
r t /home/ecappellari/transparant/opencalphad/data/CsMoO_TAFID_2021_Anna cs mo o

set ref o gas * 100000

set c t=1140
set c p=336000
set c n(cs)=1.49628e-05
set c n(mo)=2.00955e-05
set c n(o)=0.999965
c e
set c n(o)=none
set c mu(o)=-609189

c e
c w
l /out=./OCoutput_fission_products.DAT r 1

fin
----------------------------------------

3A unfished preparations for XTDB


Open Calphad (OC) software version   6.106 , linked 2026-04-16
with command line monitor version  73

This program is available with a GNU General Public License.
either version 2 of the License, or any later version.
It includes the General Thermodynamic Package, version GTP-3.31,
Hillert's equilibrium calculation algorithm version HMS-3.0 ,
step/map/plot software version SMP-2.30 using GNUPLOT 5.2 graphics.
Numerical routines are extracted from LAPACK and BLAS and
the assessment procedure uses LMDIF from ANL.

Linked with OpenMp for parallel execution
 Warning, no environment variable OCHOME and no help file
 Working directory is: /home/ecappellari/transparant/sciantix-official/regression/test_JOG_MOX/point_09_r_2p5mm
--->OC6:--->OC6: 3E Database file extention is: ".tdb"
Database has  3 elements: CS MO O 
Give the elements to select, finish with empty line
Selected  3 elements: CS MO O 
Select elements /no more/:Selected  3 elements: CS MO O 
3E reading database file: /home/ecappellari/transparant/opencalphad/data/CsMoO_TAFID_2021_Anna.TDB

Out of    82 model parameters    82 have been entered


There are     1 bibliographic references
REF0            '*** Not set by database or user'

--->OC6:--->OC6:--->OC6:--->OC6:--->OC6:--->OC6:--->OC6:--->OC6:Gridmin:    9683 points   1.16E-02 s and      11 clockcycles, T= 1140.00
 3Y leaving global_gridmin
Phase change iteration:    13  +LIQUID
Phase change iteration:    14  +LIQUID
Phase change iteration:    15  +LIQUID
Phase change iteration:    16  +LIQUID
MM Too many stable phases at iter  16, phase   8 replaced by   2, T=  1140.00
Phase change iteration:    20  -CS2MOO4_S2
Equilibrium result:  47 its,  1.3612E-02 s,     14 cc, GS= -1.2192303E+05 J/mol
--->OC6:--->OC6:--->OC6:--->OC6:Warning: global minimizer cannot be used for the current set of conditions
Phase change iteration:     4  -GAS
Phase change iteration:     8  +BCC_A2
Phase change iteration:    12  -BCC_A2
Phase change iteration:    13  +BCC_A2
Phase change iteration:    17  +CS7O1
Phase change iteration:    18  +CS7O1
Phase change iteration:    19  +CS7O1
Phase change iteration:    20  +FCC_A1
MM Too many stable phases at iter  20, phase   3 replaced by  24, T=  1140.00
Phase change iteration:    24  -FCC_A1
Phase change iteration:    28  +BCC_A2
Phase change iteration:    32  +FCC_A1
Phase change iteration:    33  +FCC_A1
Phase change iteration:    34  +FCC_A1
Phase change iteration:    35  +FCC_A1
MM Too many stable phases at iter  35, phase   3 replaced by  24, T=  1140.00
Phase change iteration:    39  -FCC_A1
MM Removing phase:   24  24#1
Phase change iteration:    43  +MC_ETA
Phase change iteration:    47  +BCC_A2
Phase change iteration:    48  +BCC_A2
MM Removing phase:    3   3#1
Phase change iteration:    50  +HCP_A3
Phase change iteration:    51  +HCP_A3
MM Too many stable phases at iter  51, phase  26 replaced by  25, T=  1140.00
Phase change iteration:    55  -HCP_A3
Phase change iteration:    59  +CS7O1
Phase change iteration:    63  +HCP_A3
Phase change iteration:    64  +HCP_A3
Phase change iteration:    65  +HCP_A3
MM Removing phase:   25  25#1
Phase change iteration:    67  +MC_ETA
MM Too many stable phases at iter  67, phase  18 replaced by  26, T=  1140.00
Phase change iteration:    71  +CS7O1
MM Removing phase:   18  18#1
Phase change iteration:    73  +CS4O
Phase change iteration:    74  +CS4O
Phase change iteration:    75  +CS4O
MM Too many stable phases at iter  75, phase  26 replaced by  17, T=  1140.00
Phase change iteration:    79  -CS4O
Phase change iteration:    83  +MC_ETA
Phase change iteration:    87  -MC_ETA
Phase change iteration:    88  +MC_ETA
Phase change iteration:    92  -MC_ETA
Phase change iteration:    93  +MC_ETA
Phase change iteration:    97  -MC_ETA
MM Removing phase:   26  26#1
Phase change iteration:   101  +TETRAGONAL_U
Phase change iteration:   105  -TETRAGONAL_U
Phase change iteration:   106  +TETRAGONAL_U
Phase change iteration:   110  -TETRAGONAL_U
Phase change iteration:   111  +TETRAGONAL_U
Phase change iteration:   115  -TETRAGONAL_U
Phase change iteration:   116  +TETRAGONAL_U
Phase change iteration:   120  -TETRAGONAL_U
Phase change iteration:   121  +TETRAGONAL_U
Phase change iteration:   125  -TETRAGONAL_U
MM Removing phase:   37  37#1
Phase change iteration:   129  +MO3TE4
Phase change iteration:   133  -MO3TE4
Phase change iteration:   134  +MO3TE4
Phase change iteration:   138  -MO3TE4
Phase change iteration:   139  +MO3TE4
Phase change iteration:   143  -MO3TE4
Phase change iteration:   144  +MO3TE4
Phase change iteration:   148  -MO3TE4
Phase change iteration:   149  +MO3TE4
Phase change iteration:   153  -MO3TE4
MM Removing phase:   27  27#1
Phase change iteration:   157  +MOTE2_A
Phase change iteration:   161  -MOTE2_A
Phase change iteration:   162  +MOTE2_A
Phase change iteration:   166  -MOTE2_A
Phase change iteration:   167  +MOTE2_A
Phase change iteration:   171  -MOTE2_A
Phase change iteration:   172  +MOTE2_A
Phase change iteration:   176  -MOTE2_A
Phase change iteration:   177  +MOTE2_A
Phase change iteration:   181  -MOTE2_A
MM Removing phase:   33  33#1
Phase change iteration:   185  +MOTE2_B
Phase change iteration:   189  -MOTE2_B
Phase change iteration:   190  +MOTE2_B
Phase change iteration:   194  -MOTE2_B
Phase change iteration:   195  +MOTE2_B
Phase change iteration:   199  -MOTE2_B
Phase change iteration:   200  +MOTE2_B
Phase change iteration:   204  -MOTE2_B
Phase change iteration:   205  +MOTE2_B
Phase change iteration:   209  +CS4O
Phase change iteration:   210  +CS4O
MM Removing phase:   17  17#1
Phase change iteration:   212  +CS7O2
Phase change iteration:   213  +CS7O2
MM Too many stable phases at iter 213, phase  34 replaced by  19, T=  1140.00
Phase change iteration:   217  -CS7O2
MM Removing phase:   34  34#1
Phase change iteration:   222  +ORTHORHOMBIC_A20
Phase change iteration:   226  +CS7O2
Phase change iteration:   227  +CS7O2
Phase change iteration:   228  +CS7O2
MM Removing phase:   19  19#1
Phase change iteration:   230  +CS3O
MM Too many stable phases at iter 230, phase  35 replaced by  16, T=  1140.00
Phase change iteration:   234  -CS3O
Phase change iteration:   238  +ORTHORHOMBIC_A20
Phase change iteration:   242  -ORTHORHOMBIC_A20
Phase change iteration:   243  +ORTHORHOMBIC_A20
Phase change iteration:   247  -ORTHORHOMBIC_A20
Phase change iteration:   248  +ORTHORHOMBIC_A20
Phase change iteration:   252  -ORTHORHOMBIC_A20
Phase change iteration:   253  +ORTHORHOMBIC_A20
Phase change iteration:   257  -ORTHORHOMBIC_A20
MM Removing phase:   35  35#1
Phase change iteration:   261  +DIS_SIG
Phase change iteration:   265  +CS3O
Phase change iteration:   266  +CS3O
Phase change iteration:   267  +CS3O
Phase change iteration:   268  +CS3O
MM Too many stable phases at iter 268, phase  23 replaced by  16, T=  1140.00
Phase change iteration:   272  -CS3O
Phase change iteration:   276  +DIS_SIG
MM Removing phase:   16  16#1
Phase change iteration:   281  +CS2O1
Phase change iteration:   293  +GAS
Phase change iteration:   294  +GAS
Phase change iteration:   295  +GAS
MM Too many stable phases at iter 295, phase   2 replaced by   1, T=  1140.00
MM Restoring phase:     16   16  CS3O
MM Restoring phase:     35   35  ORTHORHOMBIC_A20       2.2155E-01
MM Restoring phase:     19   19  CS7O2
MM Restoring phase:     34   34  MOTE2_B       2.2155E-01
MM Restoring phase:     17   17  CS4O
MM Restoring phase:     33   33  MOTE2_A       2.2155E-01
MM Restoring phase:     27   27  MO3TE4       2.2155E-01
MM Restoring phase:     37   37  TETRAGONAL_U       3.9036E-01
MM Restoring phase:     26   26  MC_ETA       6.5219E-01
MM Restoring phase:     18   18  CS7O1
MM Restoring phase:     25   25  HCP_A3       1.2063E+00
MM Restoring phase:      3    3  BCC_A2       2.3318E+00
MM Restoring phase:     24   24  FCC_A1       8.0790E-01
 MM warning, a restored phase wants to be stable:          24

Error codes:   4363     0    50
Message: No equilibrium, a restored phase should be stable

--->OC6:Phase change iteration:     4  +BCC_A2
Phase change iteration:     5  +BCC_A2
Phase change iteration:     6  +BCC_A2
Phase change iteration:     7  +BCC_A2
MM Too many stable phases at iter   7, phase  23 replaced by   3, T=  1140.00
Equilibrium result:  17 its,  6.3500E-04 s,      0 cc, GS= -2.9138350E+00 J/mol
3Y Testing if any gridpoint is below the calculated equilibrium
--->OC6:Output on file: ./OCoutput_fission_products.DAT
Output unit reset to screen:    6
--->OC6:--->OC6:
[OC output] ./OCoutput_fission_products.DAT
----------------------------------------

%%%%%%%%%% OC output written: 2026-04-20  09h53

Output for equilibrium:   1, DEFAULT_EQUILIBRIUM          2026.04.20
Conditions .................................................:
  1:T=1140, 2:P=336000, 3:N(CS)=1.49628E-05, 4:N(MO)=2.00955E-05, 5:MU(O)=
    -609189
 Degrees of freedom are   0

Some global data, reference state SER ......................:
T=   1140.00 K (   866.85 C), P=  3.3600E+05 Pa, V=  3.9093E-07 m3
N=   3.5058E-05 moles, B=   3.9167E-03 g, RT=   9.4785E+03 J/mol
G= -2.91383E+00 J, G/N=-8.3114E+04 J/mol, H= 1.8118E+00 J, S= 4.145E-03 J/K

Some data for components ...................................:
Component name    Moles      Mole-fr  Chem.pot/RT  Activities  Ref.state
CS                1.4963E-05  0.42680 -1.3424E+01  1.4797E-06  SER (default)   
MO                2.0095E-05  0.57320 -5.3026E+00  4.9788E-03  SER (default)   
O                 6.6467E-17  0.00000 -6.4270E+01  1.2239E-28  GAS             

Some data for phases .......................................:
Name                Status Moles      Volume    Form.Units Cmp/FU dGm/RT  Comp:
GAS..................... E  1.492E-05  3.91E-07  1.39E-05    1.08  0.00E+00  X:
 CS     1.00000E+00  O      3.44922E-21  MO     1.26643E-23
Constitution: There are    18 constituents:
 CS           9.23300E-01  MO2          1.00000E-30  MOO2         1.00000E-30
 CS2          7.67001E-02  MO2O6        1.00000E-30  MOO3         1.00000E-30
 CS2O         3.71377E-21  MO3O9        1.00000E-30  O            1.00000E-30
 MO           1.36356E-23  MO4O12       1.00000E-30  O2           1.00000E-30
 CSO          5.61711E-28  MO5O15       1.00000E-30  O3           1.00000E-30
 CS2O2        1.00000E-30  MOO          1.00000E-30  CS2MOO4      1.00000E-30

BCC_A2.................. E  2.014E-05  0.00E+00  2.01E-05    1.00  0.00E+00  X:
 MO     9.97914E-01  CS     2.08565E-03  O      3.30066E-12


----------------------------------------

[OC parser] Parsed components
  Cs : moles=1.4963e-05, x=0.4268, mu/RT=-13.424, activity=1.4797e-06, ref=SER (default)
  Mo : moles=2.0095e-05, x=0.5732, mu/RT=-5.3026, activity=0.0049788, ref=SER (default)
  O : moles=6.6467e-17, x=0, mu/RT=-64.27, activity=1.2239e-28, ref=GAS

[OC parser] Parsed phases
  Phase condensed : moles=2.014e-05, volume=0
    Elements
      Cs = 4.2005e-08
      Mo = 2.0098e-05
      O = 6.64753e-17
    Species
      BCC_A2 : moles=2.014e-05, volume=0
        Cs = 4.2005e-08
        Mo = 2.0098e-05
        O = 6.64753e-17
  Phase gas : moles=1.492e-05, volume=3.91e-07
    Elements
      Cs = 1.492e-05
      Mo = 1.88951e-28
      O = 5.14624e-26
    Species
      CS : moles=1.37756e-05, volume=0
      CS2 : moles=1.14437e-06, volume=0
      CS2MOO4 : moles=1.492e-35, volume=0
      CS2O : moles=5.54094e-26, volume=0
      CS2O2 : moles=1.492e-35, volume=0
      CSO : moles=8.38073e-33, volume=0
      MO : moles=2.03443e-28, volume=0
      MO2 : moles=1.492e-35, volume=0
      MO2O6 : moles=1.492e-35, volume=0
      MO3O9 : moles=1.492e-35, volume=0
      MO4O12 : moles=1.492e-35, volume=0
      MO5O15 : moles=1.492e-35, volume=0
      MOO : moles=1.492e-35, volume=0
      MOO2 : moles=1.492e-35, volume=0
      MOO3 : moles=1.492e-35, volume=0
      O : moles=1.492e-35, volume=0
      O2 : moles=1.492e-35, volume=0
      O3 : moles=1.492e-35, volume=0
      are : moles=0.00026856, volume=0
[Thermochemistry] BCC_A2 (condensed, at grain boundary) composition=Cs:0.00208565,Mo:0.997914,O:3.30066e-12 molar_mass=96.027 g/mol
[Thermochemistry] CS (gas, at grain boundary) composition=<empty> molar_mass=0 g/mol
[Thermochemistry] CS2 (gas, at grain boundary) composition=<empty> molar_mass=0 g/mol
[Thermochemistry] CS2MOO4 (gas, at grain boundary) composition=<empty> molar_mass=0 g/mol
[Thermochemistry] CS2O (gas, at grain boundary) composition=<empty> molar_mass=0 g/mol
[Thermochemistry] CS2O2 (gas, at grain boundary) composition=<empty> molar_mass=0 g/mol
[Thermochemistry] CSO (gas, at grain boundary) composition=<empty> molar_mass=0 g/mol
[Thermochemistry] MO (gas, at grain boundary) composition=<empty> molar_mass=0 g/mol
[Thermochemistry] MO2 (gas, at grain boundary) composition=<empty> molar_mass=0 g/mol
[Thermochemistry] MO2O6 (gas, at grain boundary) composition=<empty> molar_mass=0 g/mol
[Thermochemistry] MO3O9 (gas, at grain boundary) composition=<empty> molar_mass=0 g/mol
[Thermochemistry] MO4O12 (gas, at grain boundary) composition=<empty> molar_mass=0 g/mol
[Thermochemistry] MO5O15 (gas, at grain boundary) composition=<empty> molar_mass=0 g/mol
[Thermochemistry] MOO (gas, at grain boundary) composition=<empty> molar_mass=0 g/mol
[Thermochemistry] MOO2 (gas, at grain boundary) composition=<empty> molar_mass=0 g/mol
[Thermochemistry] MOO3 (gas, at grain boundary) composition=<empty> molar_mass=0 g/mol
[Thermochemistry] O (gas, at grain boundary) composition=<empty> molar_mass=0 g/mol
[Thermochemistry] O2 (gas, at grain boundary) composition=<empty> molar_mass=0 g/mol
[Thermochemistry] O3 (gas, at grain boundary) composition=<empty> molar_mass=0 g/mol
OpenCalphad attempt for 'matrix' with WARM-START

[OC input] ./OCinput_matrix.OCM
----------------------------------------
r u ./OCoutput_matrix.OCU

set ref o gas * 100000

set c t=1140
set c p=404000
set c n(o)=0.664709
set c n(pu)=0.0952027
set c n(u)=0.240088
c e
c w

save u ./OCoutput_matrix Y

l /out=./OCoutput_matrix.DAT r 1

fin
----------------------------------------

3A unfished preparations for XTDB


Open Calphad (OC) software version   6.106 , linked 2026-04-16
with command line monitor version  73

This program is available with a GNU General Public License.
either version 2 of the License, or any later version.
It includes the General Thermodynamic Package, version GTP-3.31,
Hillert's equilibrium calculation algorithm version HMS-3.0 ,
step/map/plot software version SMP-2.30 using GNUPLOT 5.2 graphics.
Numerical routines are extracted from LAPACK and BLAS and
the assessment procedure uses LMDIF from ANL.

Linked with OpenMp for parallel execution
 Warning, no environment variable OCHOME and no help file
 Working directory is: /home/ecappellari/transparant/sciantix-official/regression/test_JOG_MOX/point_09_r_2p5mm
--->OC6:
Read unformatted file: This is a save file for OC version:     OCF-3.20
Generated:  2026.04.20 09h53

 3E reading unformatted:        14778           0           0
3E Addition type   1, Inden-Hillert magn model for BCC_A2
3E Addition type   1, Inden-Hillert magn model for FCC_A1
 3E no experimental data
 3E no coefficient values saved
 3E Read assessment record
 No coefficients allocated
--->OC6:--->OC6:--->OC6:--->OC6:--->OC6:--->OC6:--->OC6:--->OC6:--->OC6:3Y Removed  2 gridpoints by merging
Gridmin:    7483 points   9.11E-03 s and       8 clockcycles, T= 1140.00
 3Y leaving global_gridmin
Equilibrium result:  16 its,  9.7330E-03 s,     10 cc, GS= -4.0907614E+05 J/mol
--->OC6:Equilibrium result:   9 its,  2.9100E-04 s,      0 cc, GS= -4.0907614E+05 J/mol
3Y Testing if any gridpoint is below the calculated equilibrium
--->OC6:--->OC6:
Overwriting previous results on ./OCoutput_matrix.OCU
3E allocating workspace:     122160          (   2160,   10000,    2)
 3E saving            3  symbols as texts
 3E used        12112  words out of       122160  for storing static data
 ceqrecsize not implemented          25
 3E Saving an equilibrium record requires     2613       0 words
 3E not storing unused equilibria from:            2
 3E Saving assessment record
 3E No experimental equilibrium range set
 3E allocating assessment head record          48
 3E no coefficients allocated
 3E no work array (assrec%wopt) allocated
Used    14813 words out of   122160,  12.13% for unformatted memory save
Written workspace      59252 bytes unformatted on ./OCoutput_matrix.OCU
--->OC6:--->OC6:Output on file: ./OCoutput_matrix.DAT
Output unit reset to screen:    6
--->OC6:--->OC6:
[OC output] ./OCoutput_matrix.DAT
----------------------------------------

%%%%%%%%%% OC output written: 2026-04-20  09h53

Output for equilibrium:   1, DEFAULT_EQUILIBRIUM          2026.04.20
Conditions .................................................:
  1:T=1140, 2:P=404000, 3:N(O)=0.664709, 4:N(PU)=.0952027, 5:N(U)=0.240088
 Degrees of freedom are   0

Some global data, reference state SER ......................:
T=   1140.00 K (   866.85 C), P=  4.0400E+05 Pa, V=  0.0000E+00 m3
N=   1.0000E+00 moles, B=   9.1018E+01 g, RT=   9.4785E+03 J/mol
G= -4.09076E+05 J, G/N=-4.0908E+05 J/mol, H=-3.3770E+05 J, S= 6.261E+01 J/K

Some data for components ...................................:
Component name    Moles      Mole-fr  Chem.pot/RT  Activities  Ref.state
O                 6.6471E-01  0.66471 -3.1936E+01  1.3499E-14  GAS             
PU                9.5203E-02  0.09520 -3.9496E+01  7.0336E-18  SER (default)   
U                 2.4009E-01  0.24009 -4.0326E+01  3.0663E-18  SER (default)   

Some data for phases .......................................:
Name                Status Moles      Volume    Form.Units Cmp/FU dGm/RT  Comp:
C1_MO2.................. E  1.000E+00  0.00E+00  3.35E-01    2.98  0.00E+00  X:
 O      6.64709E-01  U      2.40088E-01  PU     9.52027E-02


----------------------------------------

[OC parser] Parsed components
  O : moles=0.66471, x=0.66471, mu/RT=-31.936, activity=1.3499e-14, ref=GAS
  Pu : moles=0.095203, x=0.0952, mu/RT=-39.496, activity=7.0336e-18, ref=SER (default)
  U : moles=0.24009, x=0.24009, mu/RT=-40.326, activity=3.0663e-18, ref=SER (default)

[OC parser] Parsed phases
  Phase condensed : moles=1, volume=0
    Elements
      O = 1.98083
      Pu = 0.283704
      U = 0.715462
    Species
      C1_MO2 : moles=1, volume=0
        O = 1.98083
        Pu = 0.283704
        U = 0.715462
OpenCalphad attempt for 'at grain boundary' with WARM-START

[OC input] ./OCinput_fission_products.OCM
----------------------------------------
r u ./OCoutput_fission_products.OCU

set ref o gas * 100000

set c t=1140
set c p=404000
set c n(cs)=2.58015e-05
set c n(mo)=3.49627e-05
set c n(o)=0.999939
c e
set c n(o)=none
set c mu(o)=-605398

c w

save u ./OCoutput_fission_products Y

l /out=./OCoutput_fission_products.DAT r 1

fin
----------------------------------------

3A unfished preparations for XTDB


Open Calphad (OC) software version   6.106 , linked 2026-04-16
with command line monitor version  73

This program is available with a GNU General Public License.
either version 2 of the License, or any later version.
It includes the General Thermodynamic Package, version GTP-3.31,
Hillert's equilibrium calculation algorithm version HMS-3.0 ,
step/map/plot software version SMP-2.30 using GNUPLOT 5.2 graphics.
Numerical routines are extracted from LAPACK and BLAS and
the assessment procedure uses LMDIF from ANL.

Linked with OpenMp for parallel execution
 Warning, no environment variable OCHOME and no help file
 Working directory is: /home/ecappellari/transparant/sciantix-official/regression/test_JOG_MOX/point_09_r_2p5mm
--->OC6:
Read unformatted file: This is a save file for OC version:     OCF-3.20
Generated:  2026.04.20 09h53

 3E reading unformatted:        16313           0           0
3E Addition type   1, Inden-Hillert magn model for BCC_A2
3E Addition type   1, Inden-Hillert magn model for FCC_A1
3E Addition type   1, Inden-Hillert magn model for HCP_A3
 3E no experimental data
 3E no coefficient values saved
 3E Read assessment record
 No coefficients allocated
--->OC6:--->OC6:--->OC6:--->OC6:--->OC6:--->OC6:--->OC6:--->OC6:--->OC6:
Error codes:   4144     0    50
Message: Degrees of freedom not zero

--->OC6:--->OC6:--->OC6:--->OC6:Phase change iteration:     4  +BCC_A2
Phase change iteration:     5  +BCC_A2
Phase change iteration:     6  +BCC_A2
Phase change iteration:     7  +BCC_A2
MM Too many stable phases at iter   7, phase  23 replaced by   3, T=  1140.00
Equilibrium result:  17 its,  6.6000E-04 s,      0 cc, GS= -4.9986646E+00 J/mol
3Y Testing if any gridpoint is below the calculated equilibrium
--->OC6:--->OC6:
Overwriting previous results on ./OCoutput_fission_products.OCU
3E allocating workspace:     123330          (   3330,   10000,    2)
 3E saving            3  symbols as texts
 3E used        12281  words out of       123330  for storing static data
 ceqrecsize not implemented          38
 3E Saving an equilibrium record requires     3979       0 words
 3E not storing unused equilibria from:            2
 3E Saving assessment record
 3E No experimental equilibrium range set
 3E allocating assessment head record          48
 3E no coefficients allocated
 3E no work array (assrec%wopt) allocated
Used    16348 words out of   123330,  13.26% for unformatted memory save
Written workspace      65392 bytes unformatted on ./OCoutput_fission_products.OCU
--->OC6:--->OC6:Output on file: ./OCoutput_fission_products.DAT
Output unit reset to screen:    6
--->OC6:--->OC6:
[OC output] ./OCoutput_fission_products.DAT
----------------------------------------

%%%%%%%%%% OC output written: 2026-04-20  09h53

Output for equilibrium:   1, DEFAULT_EQUILIBRIUM          2026.04.20
Conditions .................................................:
  1:T=1140, 2:P=404000, 3:N(CS)=2.58015E-05, 4:N(MO)=3.49627E-05, 5:MU(O)=
    -605398
 Degrees of freedom are   0

Some global data, reference state SER ......................:
T=   1140.00 K (   866.85 C), P=  4.0400E+05 Pa, V=  5.5367E-07 m3
N=   6.0764E-05 moles, B=   6.7836E-03 g, RT=   9.4785E+03 J/mol
G= -4.99866E+00 J, G/N=-8.2263E+04 J/mol, H= 3.1177E+00 J, S= 7.120E-03 J/K

Some data for components ...................................:
Component name    Moles      Mole-fr  Chem.pot/RT  Activities  Ref.state
CS                2.5802E-05  0.42462 -1.3254E+01  1.7541E-06  SER (default)   
MO                3.4963E-05  0.57538 -5.3030E+00  4.9769E-03  SER (default)   
O                 1.1569E-16  0.00000 -6.3870E+01  1.8258E-28  GAS             

Some data for phases .......................................:
Name                Status Moles      Volume    Form.Units Cmp/FU dGm/RT  Comp:
GAS..................... E  2.571E-05  5.54E-07  2.36E-05    1.09  0.00E+00  X:
 CS     1.00000E+00  O      6.51653E-21  MO     1.11255E-23
Constitution: There are    18 constituents:
 CS           9.10347E-01  MO2          1.00000E-30  MOO2         1.00000E-30
 CS2          8.96532E-02  MO2O6        1.00000E-30  MOO3         1.00000E-30
 CS2O         7.10076E-21  MO3O9        1.00000E-30  O            1.00000E-30
 MO           1.21229E-23  MO4O12       1.00000E-30  O2           1.00000E-30
 CSO          9.05934E-28  MO5O15       1.00000E-30  O3           1.00000E-30
 CS2O2        1.00000E-30  MOO          1.00000E-30  CS2MOO4      1.00000E-30

BCC_A2.................. E  3.505E-05  0.00E+00  3.50E-05    1.00  0.00E+00  X:
 MO     9.97517E-01  CS     2.48293E-03  O      3.30066E-12


----------------------------------------

[OC parser] Parsed components
  Cs : moles=2.5802e-05, x=0.42462, mu/RT=-13.254, activity=1.7541e-06, ref=SER (default)
  Mo : moles=3.4963e-05, x=0.57538, mu/RT=-5.303, activity=0.0049769, ref=SER (default)
  O : moles=1.1569e-16, x=0, mu/RT=-63.87, activity=1.8258e-28, ref=GAS

[OC parser] Parsed phases
  Phase condensed : moles=3.505e-05, volume=0
    Elements
      Cs = 8.70267e-08
      Mo = 3.4963e-05
      O = 1.15688e-16
    Species
      BCC_A2 : moles=3.505e-05, volume=0
        Cs = 8.70267e-08
        Mo = 3.4963e-05
        O = 1.15688e-16
  Phase gas : moles=2.571e-05, volume=5.54e-07
    Elements
      Cs = 2.571e-05
      Mo = 2.86037e-28
      O = 1.6754e-25
    Species
      CS : moles=2.3405e-05, volume=0
      CS2 : moles=2.30498e-06, volume=0
      CS2MOO4 : moles=2.571e-35, volume=0
      CS2O : moles=1.82561e-25, volume=0
      CS2O2 : moles=2.571e-35, volume=0
      CSO : moles=2.32916e-32, volume=0
      MO : moles=3.1168e-28, volume=0
      MO2 : moles=2.571e-35, volume=0
      MO2O6 : moles=2.571e-35, volume=0
      MO3O9 : moles=2.571e-35, volume=0
      MO4O12 : moles=2.571e-35, volume=0
      MO5O15 : moles=2.571e-35, volume=0
      MOO : moles=2.571e-35, volume=0
      MOO2 : moles=2.571e-35, volume=0
      MOO3 : moles=2.571e-35, volume=0
      O : moles=2.571e-35, volume=0
      O2 : moles=2.571e-35, volume=0
      O3 : moles=2.571e-35, volume=0
      are : moles=0.00046278, volume=0
OpenCalphad attempt for 'matrix' with WARM-START

[OC input] ./OCinput_matrix.OCM
----------------------------------------
r u ./OCoutput_matrix.OCU

set ref o gas * 100000

set c t=1140
set c p=472000
set c n(o)=0.664991
set c n(pu)=0.0948194
set c n(u)=0.24019
c e
c w

save u ./OCoutput_matrix Y

l /out=./OCoutput_matrix.DAT r 1

fin
----------------------------------------

3A unfished preparations for XTDB


Open Calphad (OC) software version   6.106 , linked 2026-04-16
with command line monitor version  73

This program is available with a GNU General Public License.
either version 2 of the License, or any later version.
It includes the General Thermodynamic Package, version GTP-3.31,
Hillert's equilibrium calculation algorithm version HMS-3.0 ,
step/map/plot software version SMP-2.30 using GNUPLOT 5.2 graphics.
Numerical routines are extracted from LAPACK and BLAS and
the assessment procedure uses LMDIF from ANL.

Linked with OpenMp for parallel execution
 Warning, no environment variable OCHOME and no help file
 Working directory is: /home/ecappellari/transparant/sciantix-official/regression/test_JOG_MOX/point_09_r_2p5mm
--->OC6:
Read unformatted file: This is a save file for OC version:     OCF-3.20
Generated:  2026.04.20 09h53

 3E reading unformatted:        14778           0           0
3E Addition type   1, Inden-Hillert magn model for BCC_A2
3E Addition type   1, Inden-Hillert magn model for FCC_A1
 3E no experimental data
 3E no coefficient values saved
 3E Read assessment record
 No coefficients allocated
--->OC6:--->OC6:--->OC6:--->OC6:--->OC6:--->OC6:--->OC6:--->OC6:--->OC6:3Y Removed  2 gridpoints by merging
Gridmin:    7483 points   9.84E-03 s and       9 clockcycles, T= 1140.00
 3Y leaving global_gridmin
Equilibrium result:  16 its,  1.0537E-02 s,     11 cc, GS= -4.0908984E+05 J/mol
--->OC6:Equilibrium result:   9 its,  3.2100E-04 s,      0 cc, GS= -4.0908984E+05 J/mol
3Y Testing if any gridpoint is below the calculated equilibrium
--->OC6:--->OC6:
Overwriting previous results on ./OCoutput_matrix.OCU
3E allocating workspace:     122160          (   2160,   10000,    2)
 3E saving            3  symbols as texts
 3E used        12112  words out of       122160  for storing static data
 ceqrecsize not implemented          25
 3E Saving an equilibrium record requires     2613       0 words
 3E not storing unused equilibria from:            2
 3E Saving assessment record
 3E No experimental equilibrium range set
 3E allocating assessment head record          48
 3E no coefficients allocated
 3E no work array (assrec%wopt) allocated
Used    14813 words out of   122160,  12.13% for unformatted memory save
Written workspace      59252 bytes unformatted on ./OCoutput_matrix.OCU
--->OC6:--->OC6:Output on file: ./OCoutput_matrix.DAT
Output unit reset to screen:    6
--->OC6:--->OC6:
[OC output] ./OCoutput_matrix.DAT
----------------------------------------

%%%%%%%%%% OC output written: 2026-04-20  09h53

Output for equilibrium:   1, DEFAULT_EQUILIBRIUM          2026.04.20
Conditions .................................................:
  1:T=1140, 2:P=472000, 3:N(O)=0.664991, 4:N(PU)=.0948194, 5:N(U)=0.24019
 Degrees of freedom are   0

Some global data, reference state SER ......................:
T=   1140.00 K (   866.85 C), P=  4.7200E+05 Pa, V=  0.0000E+00 m3
N=   1.0000E+00 moles, B=   9.0953E+01 g, RT=   9.4785E+03 J/mol
G= -4.09090E+05 J, G/N=-4.0909E+05 J/mol, H=-3.3781E+05 J, S= 6.253E+01 J/K

Some data for components ...................................:
Component name    Moles      Mole-fr  Chem.pot/RT  Activities  Ref.state
O                 6.6499E-01  0.66499 -3.1679E+01  1.7461E-14  GAS             
PU                9.4819E-02  0.09482 -4.0157E+01  3.6322E-18  SER (default)   
U                 2.4019E-01  0.24019 -4.0993E+01  1.5746E-18  SER (default)   

Some data for phases .......................................:
Name                Status Moles      Volume    Form.Units Cmp/FU dGm/RT  Comp:
C1_MO2.................. E  1.000E+00  0.00E+00  3.35E-01    2.98  0.00E+00  X:
 O      6.64991E-01  U      2.40190E-01  PU     9.48194E-02


----------------------------------------

[OC parser] Parsed components
  O : moles=0.66499, x=0.66499, mu/RT=-31.679, activity=1.7461e-14, ref=GAS
  Pu : moles=0.094819, x=0.09482, mu/RT=-40.157, activity=3.6322e-18, ref=SER (default)
  U : moles=0.24019, x=0.24019, mu/RT=-40.993, activity=1.5746e-18, ref=SER (default)

[OC parser] Parsed phases
  Phase condensed : moles=1, volume=0
    Elements
      O = 1.98167
      Pu = 0.282562
      U = 0.715766
    Species
      C1_MO2 : moles=1, volume=0
        O = 1.98167
        Pu = 0.282562
        U = 0.715766
OpenCalphad attempt for 'at grain boundary' with WARM-START

[OC input] ./OCinput_fission_products.OCM
----------------------------------------
r u ./OCoutput_fission_products.OCU

set ref o gas * 100000

set c t=1140
set c p=472000
set c n(cs)=3.80639e-05
set c n(mo)=5.22261e-05
set c n(o)=0.99991
c e
set c n(o)=none
set c mu(o)=-600526

c w

save u ./OCoutput_fission_products Y

l /out=./OCoutput_fission_products.DAT r 1

fin
----------------------------------------

3A unfished preparations for XTDB


Open Calphad (OC) software version   6.106 , linked 2026-04-16
with command line monitor version  73

This program is available with a GNU General Public License.
either version 2 of the License, or any later version.
It includes the General Thermodynamic Package, version GTP-3.31,
Hillert's equilibrium calculation algorithm version HMS-3.0 ,
step/map/plot software version SMP-2.30 using GNUPLOT 5.2 graphics.
Numerical routines are extracted from LAPACK and BLAS and
the assessment procedure uses LMDIF from ANL.

Linked with OpenMp for parallel execution
 Warning, no environment variable OCHOME and no help file
 Working directory is: /home/ecappellari/transparant/sciantix-official/regression/test_JOG_MOX/point_09_r_2p5mm
--->OC6:
Read unformatted file: This is a save file for OC version:     OCF-3.20
Generated:  2026.04.20 09h53

 3E reading unformatted:        16313           0           0
3E Addition type   1, Inden-Hillert magn model for BCC_A2
3E Addition type   1, Inden-Hillert magn model for FCC_A1
3E Addition type   1, Inden-Hillert magn model for HCP_A3
 3E no experimental data
 3E no coefficient values saved
 3E Read assessment record
 No coefficients allocated
--->OC6:--->OC6:--->OC6:--->OC6:--->OC6:--->OC6:--->OC6:--->OC6:--->OC6:
Error codes:   4144     0    50
Message: Degrees of freedom not zero

--->OC6:--->OC6:--->OC6:--->OC6:Phase change iteration:     4  +LIQUID
Phase change iteration:     5  +LIQUID
Phase change iteration:     6  +LIQUID
Phase change iteration:     7  +LIQUID
MM Too many stable phases at iter   7, phase   3 replaced by   2, T=  1140.00
Phase change iteration:    11  -GAS
Phase change iteration:    14  +GAS
Phase change iteration:    18  -GAS
Phase change iteration:    22  +BCC_A2
Equilibrium result:  37 its,  1.8490E-03 s,      2 cc, GS= -7.3589207E+00 J/mol
3Y Testing if any gridpoint is below the calculated equilibrium
--->OC6:--->OC6:
Overwriting previous results on ./OCoutput_fission_products.OCU
3E allocating workspace:     123330          (   3330,   10000,    2)
 3E saving            3  symbols as texts
 3E used        12281  words out of       123330  for storing static data
 ceqrecsize not implemented          38
 3E Saving an equilibrium record requires     3979       0 words
 3E not storing unused equilibria from:            2
 3E Saving assessment record
 3E No experimental equilibrium range set
 3E allocating assessment head record          48
 3E no coefficients allocated
 3E no work array (assrec%wopt) allocated
Used    16348 words out of   123330,  13.26% for unformatted memory save
Written workspace      65392 bytes unformatted on ./OCoutput_fission_products.OCU
--->OC6:--->OC6:Output on file: ./OCoutput_fission_products.DAT
Output unit reset to screen:    6
--->OC6:--->OC6:
[OC output] ./OCoutput_fission_products.DAT
----------------------------------------

%%%%%%%%%% OC output written: 2026-04-20  09h53

Output for equilibrium:   1, DEFAULT_EQUILIBRIUM          2026.04.20
Conditions .................................................:
  1:T=1140, 2:P=472000, 3:N(CS)=3.80639E-05, 4:N(MO)=5.22261E-05, 5:MU(O)=
    -600526
 Degrees of freedom are   0

Some global data, reference state SER ......................:
T=   1140.00 K (   866.85 C), P=  4.7200E+05 Pa, V=  0.0000E+00 m3
N=   9.0290E-05 moles, B=   1.0070E-02 g, RT=   9.4785E+03 J/mol
G= -7.35892E+00 J, G/N=-8.1503E+04 J/mol, H= 2.2461E+00 J, S= 8.425E-03 J/K

Some data for components ...................................:
Component name    Moles      Mole-fr  Chem.pot/RT  Activities  Ref.state
CS                3.8064E-05  0.42157 -1.3120E+01  2.0044E-06  SER (default)   
MO                5.2226E-05  0.57843 -5.3033E+00  4.9751E-03  SER (default)   
O                 6.3181E-16  0.00000 -6.3356E+01  3.0527E-28  GAS             

Some data for phases .......................................:
Name                Status Moles      Volume    Form.Units Cmp/FU dGm/RT  Comp:
LIQUID.................. E  3.793E-05  0.00E+00  3.79E-05    1.00  0.00E+00  X:
 CS     9.99636E-01  MO     3.63602E-04  O      1.21012E-11

BCC_A2.................. E  5.236E-05  0.00E+00  5.24E-05    1.00  0.00E+00  X:
 MO     9.97152E-01  CS     2.84803E-03  O      3.30066E-12


----------------------------------------

[OC parser] Parsed components
  Cs : moles=3.8064e-05, x=0.42157, mu/RT=-13.12, activity=2.0044e-06, ref=SER (default)
  Mo : moles=5.2226e-05, x=0.57843, mu/RT=-5.3033, activity=0.0049751, ref=SER (default)
  O : moles=6.3181e-16, x=0, mu/RT=-63.356, activity=3.0527e-28, ref=GAS

[OC parser] Parsed phases
  Phase condensed : moles=5.236e-05, volume=0
    Elements
      Cs = 1.49123e-07
      Mo = 5.22109e-05
      O = 1.72823e-16
    Species
      BCC_A2 : moles=5.236e-05, volume=0
        Cs = 1.49123e-07
        Mo = 5.22109e-05
        O = 1.72823e-16
  Phase liquid : moles=3.793e-05, volume=0
    Elements
      Cs = 3.79162e-05
      Mo = 1.37914e-08
      O = 4.58999e-16
[Thermochemistry] LIQUID (liquid, at grain boundary) composition=Cs:0.9996364,Mo:0.00036360214,O:1.2101205e-11 molar_mass=132.892 g/mol
[ThermochemistryPhase] liquid (at grain boundary) composition=Cs:0.9996364,Mo:0.00036360214,O:1.2101205e-11 molar_mass=132.892 g/mol
OpenCalphad attempt for 'matrix' with WARM-START

[OC input] ./OCinput_matrix.OCM
----------------------------------------
r u ./OCoutput_matrix.OCU

set ref o gas * 100000

set c t=1140
set c p=540000
set c n(o)=0.665273
set c n(pu)=0.0944357
set c n(u)=0.240292
c e
c w

save u ./OCoutput_matrix Y

l /out=./OCoutput_matrix.DAT r 1

fin
----------------------------------------

3A unfished preparations for XTDB


Open Calphad (OC) software version   6.106 , linked 2026-04-16
with command line monitor version  73

This program is available with a GNU General Public License.
either version 2 of the License, or any later version.
It includes the General Thermodynamic Package, version GTP-3.31,
Hillert's equilibrium calculation algorithm version HMS-3.0 ,
step/map/plot software version SMP-2.30 using GNUPLOT 5.2 graphics.
Numerical routines are extracted from LAPACK and BLAS and
the assessment procedure uses LMDIF from ANL.

Linked with OpenMp for parallel execution
 Warning, no environment variable OCHOME and no help file
 Working directory is: /home/ecappellari/transparant/sciantix-official/regression/test_JOG_MOX/point_09_r_2p5mm
--->OC6:
Read unformatted file: This is a save file for OC version:     OCF-3.20
Generated:  2026.04.20 09h53

 3E reading unformatted:        14778           0           0
3E Addition type   1, Inden-Hillert magn model for BCC_A2
3E Addition type   1, Inden-Hillert magn model for FCC_A1
 3E no experimental data
 3E no coefficient values saved
 3E Read assessment record
 No coefficients allocated
--->OC6:--->OC6:--->OC6:--->OC6:--->OC6:--->OC6:--->OC6:--->OC6:--->OC6:3Y Removed  2 gridpoints by merging
Gridmin:    7483 points   9.73E-03 s and       8 clockcycles, T= 1140.00
 3Y leaving global_gridmin
Equilibrium result:  16 its,  1.0351E-02 s,     10 cc, GS= -4.0910052E+05 J/mol
--->OC6:Equilibrium result:   9 its,  2.7300E-04 s,      1 cc, GS= -4.0910052E+05 J/mol
3Y Testing if any gridpoint is below the calculated equilibrium
--->OC6:--->OC6:
Overwriting previous results on ./OCoutput_matrix.OCU
3E allocating workspace:     122160          (   2160,   10000,    2)
 3E saving            3  symbols as texts
 3E used        12112  words out of       122160  for storing static data
 ceqrecsize not implemented          25
 3E Saving an equilibrium record requires     2613       0 words
 3E not storing unused equilibria from:            2
 3E Saving assessment record
 3E No experimental equilibrium range set
 3E allocating assessment head record          48
 3E no coefficients allocated
 3E no work array (assrec%wopt) allocated
Used    14813 words out of   122160,  12.13% for unformatted memory save
Written workspace      59252 bytes unformatted on ./OCoutput_matrix.OCU
--->OC6:--->OC6:Output on file: ./OCoutput_matrix.DAT
Output unit reset to screen:    6
--->OC6:--->OC6:
[OC output] ./OCoutput_matrix.DAT
----------------------------------------

%%%%%%%%%% OC output written: 2026-04-20  09h53

Output for equilibrium:   1, DEFAULT_EQUILIBRIUM          2026.04.20
Conditions .................................................:
  1:T=1140, 2:P=540000, 3:N(O)=0.665273, 4:N(PU)=.0944357, 5:N(U)=0.240292
 Degrees of freedom are   0

Some global data, reference state SER ......................:
T=   1140.00 K (   866.85 C), P=  5.4000E+05 Pa, V=  0.0000E+00 m3
N=   1.0000E+00 moles, B=   9.0888E+01 g, RT=   9.4785E+03 J/mol
G= -4.09101E+05 J, G/N=-4.0910E+05 J/mol, H=-3.3791E+05 J, S= 6.245E+01 J/K

Some data for components ...................................:
Component name    Moles      Mole-fr  Chem.pot/RT  Activities  Ref.state
O                 6.6527E-01  0.66527 -3.1356E+01  2.4110E-14  GAS             
PU                9.4436E-02  0.09444 -4.0927E+01  1.6819E-18  SER (default)   
U                 2.4029E-01  0.24029 -4.1769E+01  7.2449E-19  SER (default)   

Some data for phases .......................................:
Name                Status Moles      Volume    Form.Units Cmp/FU dGm/RT  Comp:
C1_MO2.................. E  1.000E+00  0.00E+00  3.35E-01    2.99  0.00E+00  X:
 O      6.65273E-01  U      2.40292E-01  PU     9.44356E-02


----------------------------------------

[OC parser] Parsed components
  O : moles=0.66527, x=0.66527, mu/RT=-31.356, activity=2.411e-14, ref=GAS
  Pu : moles=0.094436, x=0.09444, mu/RT=-40.927, activity=1.6819e-18, ref=SER (default)
  U : moles=0.24029, x=0.24029, mu/RT=-41.769, activity=7.2449e-19, ref=SER (default)

[OC parser] Parsed phases
  Phase condensed : moles=1, volume=0
    Elements
      O = 1.98917
      Pu = 0.282362
      U = 0.718473
    Species
      C1_MO2 : moles=1, volume=0
        O = 1.98917
        Pu = 0.282362
        U = 0.718473
OpenCalphad attempt for 'at grain boundary' with WARM-START

[OC input] ./OCinput_fission_products.OCM
----------------------------------------
r u ./OCoutput_fission_products.OCU

set ref o gas * 100000

set c t=1140
set c p=540000
set c n(cs)=5.23566e-05
set c n(mo)=7.15666e-05
set c n(o)=0.999876
c e
set c n(o)=none
set c mu(o)=-594403

c w

save u ./OCoutput_fission_products Y

l /out=./OCoutput_fission_products.DAT r 1

fin
----------------------------------------

3A unfished preparations for XTDB


Open Calphad (OC) software version   6.106 , linked 2026-04-16
with command line monitor version  73

This program is available with a GNU General Public License.
either version 2 of the License, or any later version.
It includes the General Thermodynamic Package, version GTP-3.31,
Hillert's equilibrium calculation algorithm version HMS-3.0 ,
step/map/plot software version SMP-2.30 using GNUPLOT 5.2 graphics.
Numerical routines are extracted from LAPACK and BLAS and
the assessment procedure uses LMDIF from ANL.

Linked with OpenMp for parallel execution
 Warning, no environment variable OCHOME and no help file
 Working directory is: /home/ecappellari/transparant/sciantix-official/regression/test_JOG_MOX/point_09_r_2p5mm
--->OC6:
Read unformatted file: This is a save file for OC version:     OCF-3.20
Generated:  2026.04.20 09h53

 3E reading unformatted:        16313           0           0
3E Addition type   1, Inden-Hillert magn model for BCC_A2
3E Addition type   1, Inden-Hillert magn model for FCC_A1
3E Addition type   1, Inden-Hillert magn model for HCP_A3
 3E no experimental data
 3E no coefficient values saved
 3E Read assessment record
 No coefficients allocated
--->OC6:--->OC6:--->OC6:--->OC6:--->OC6:--->OC6:--->OC6:--->OC6:--->OC6:
Error codes:   4144     0    50
Message: Degrees of freedom not zero

--->OC6:--->OC6:--->OC6:--->OC6:Equilibrium result:   9 its,  4.2400E-04 s,      1 cc, GS= -1.0108558E+01 J/mol
3Y Testing if any gridpoint is below the calculated equilibrium
--->OC6:--->OC6:
Overwriting previous results on ./OCoutput_fission_products.OCU
3E allocating workspace:     123330          (   3330,   10000,    2)
 3E saving            3  symbols as texts
 3E used        12281  words out of       123330  for storing static data
 ceqrecsize not implemented          38
 3E Saving an equilibrium record requires     3979       0 words
 3E not storing unused equilibria from:            2
 3E Saving assessment record
 3E No experimental equilibrium range set
 3E allocating assessment head record          48
 3E no coefficients allocated
 3E no work array (assrec%wopt) allocated
Used    16348 words out of   123330,  13.26% for unformatted memory save
Written workspace      65392 bytes unformatted on ./OCoutput_fission_products.OCU
--->OC6:--->OC6:Output on file: ./OCoutput_fission_products.DAT
Output unit reset to screen:    6
--->OC6:--->OC6:
[OC output] ./OCoutput_fission_products.DAT
----------------------------------------

%%%%%%%%%% OC output written: 2026-04-20  09h53

Output for equilibrium:   1, DEFAULT_EQUILIBRIUM          2026.04.20
Conditions .................................................:
  1:T=1140, 2:P=540000, 3:N(CS)=5.23566E-05, 4:N(MO)=7.15666E-05, 5:MU(O)=
    -594403
 Degrees of freedom are   0

Some global data, reference state SER ......................:
T=   1140.00 K (   866.85 C), P=  5.4000E+05 Pa, V=  0.0000E+00 m3
N=   1.2392E-04 moles, B=   1.3825E-02 g, RT=   9.4785E+03 J/mol
G= -1.01086E+01 J, G/N=-8.1571E+04 J/mol, H= 3.0834E+00 J, S= 1.157E-02 J/K

Some data for components ...................................:
Component name    Moles      Mole-fr  Chem.pot/RT  Activities  Ref.state
CS                5.2357E-05  0.42249 -1.3120E+01  2.0044E-06  SER (default)   
MO                7.1567E-05  0.57751 -5.3033E+00  4.9751E-03  SER (default)   
O                 8.6816E-16  0.00000 -6.2710E+01  5.8240E-28  GAS             

Some data for phases .......................................:
Name                Status Moles      Volume    Form.Units Cmp/FU dGm/RT  Comp:
LIQUID.................. E  5.217E-05  0.00E+00  5.21E-05    1.00  0.00E+00  X:
 CS     9.99637E-01  MO     3.63391E-04  O      1.21012E-11

BCC_A2.................. E  7.175E-05  0.00E+00  7.18E-05    1.00  0.00E+00  X:
 MO     9.97152E-01  CS     2.84803E-03  O      3.30066E-12


----------------------------------------

[OC parser] Parsed components
  Cs : moles=5.2357e-05, x=0.42249, mu/RT=-13.12, activity=2.0044e-06, ref=SER (default)
  Mo : moles=7.1567e-05, x=0.57751, mu/RT=-5.3033, activity=0.0049751, ref=SER (default)
  O : moles=8.6816e-16, x=0, mu/RT=-62.71, activity=5.824e-28, ref=GAS

[OC parser] Parsed phases
  Phase condensed : moles=7.175e-05, volume=0
    Elements
      Cs = 2.04346e-07
      Mo = 7.15457e-05
      O = 2.36822e-16
    Species
      BCC_A2 : moles=7.175e-05, volume=0
        Cs = 2.04346e-07
        Mo = 7.15457e-05
        O = 2.36822e-16
  Phase liquid : moles=5.217e-05, volume=0
    Elements
      Cs = 5.21511e-05
      Mo = 1.89581e-08
      O = 6.3132e-16
[ThermochemistryPhase] liquid (at grain boundary) composition=Cs:0.99963661,Mo:0.00036339086,O:1.2101195e-11 molar_mass=132.892 g/mol
OpenCalphad attempt for 'matrix' with WARM-START

[OC input] ./OCinput_matrix.OCM
----------------------------------------
r u ./OCoutput_matrix.OCU

set ref o gas * 100000

set c t=1140
set c p=608000
set c n(o)=0.665555
set c n(pu)=0.0940517
set c n(u)=0.240394
c e
c w

save u ./OCoutput_matrix Y

l /out=./OCoutput_matrix.DAT r 1

fin
----------------------------------------

3A unfished preparations for XTDB


Open Calphad (OC) software version   6.106 , linked 2026-04-16
with command line monitor version  73

This program is available with a GNU General Public License.
either version 2 of the License, or any later version.
It includes the General Thermodynamic Package, version GTP-3.31,
Hillert's equilibrium calculation algorithm version HMS-3.0 ,
step/map/plot software version SMP-2.30 using GNUPLOT 5.2 graphics.
Numerical routines are extracted from LAPACK and BLAS and
the assessment procedure uses LMDIF from ANL.

Linked with OpenMp for parallel execution
 Warning, no environment variable OCHOME and no help file
 Working directory is: /home/ecappellari/transparant/sciantix-official/regression/test_JOG_MOX/point_09_r_2p5mm
--->OC6:
Read unformatted file: This is a save file for OC version:     OCF-3.20
Generated:  2026.04.20 09h53

 3E reading unformatted:        14778           0           0
3E Addition type   1, Inden-Hillert magn model for BCC_A2
3E Addition type   1, Inden-Hillert magn model for FCC_A1
 3E no experimental data
 3E no coefficient values saved
 3E Read assessment record
 No coefficients allocated
--->OC6:--->OC6:--->OC6:--->OC6:--->OC6:--->OC6:--->OC6:--->OC6:--->OC6:3Y Removed  1 gridpoints by merging
 3Y Composition set(s) created:            1
Gridmin:    7483 points   8.81E-03 s and       7 clockcycles, T= 1140.00
 3Y leaving global_gridmin
Phase change iteration:     5  +ZETA_PHASE
Phase change iteration:     9  +PU2O3
Phase change iteration:    10  -ZETA_PHASE
Phase change iteration:    14  +U4O9_S3
Phase change iteration:    18  -C1_MO2_AUTO#2
Phase change iteration:    22  -U4O9_S3
MM ignoring phase: C1_MO2_AUTO#2   7  25 with charge:  1.8766E+00
MM ignoring phase: C1_MO2_AUTO#2   7  25 with charge:  1.4456E+00
MM ignoring phase: C1_MO2_AUTO#2   7  25 with charge:  1.1142E+00
MM ignoring phase: C1_MO2_AUTO#2   7  25 with charge:  8.5375E-01
MM ignoring phase: C1_MO2_AUTO#2   7  25 with charge:  6.5112E-01
MM Removing phase:    7   6#2
Phase change iteration:    32  +PUO161
Phase change iteration:    36  -PUO161
MM Restoring phase:      7   25  C1_MO2_AUTO#2
Equilibrium result:  65 its,  1.1533E-02 s,     11 cc, GS= -4.0910772E+05 J/mol
--->OC6:Equilibrium result:   9 its,  3.2800E-04 s,      0 cc, GS= -4.0910772E+05 J/mol
3Y Testing if any gridpoint is below the calculated equilibrium
--->OC6:--->OC6:
Overwriting previous results on ./OCoutput_matrix.OCU
3E allocating workspace:     122160          (   2160,   10000,    2)
 3E saving            3  symbols as texts
 3E used        12117  words out of       122160  for storing static data
 ceqrecsize not implemented          26
 3E Saving an equilibrium record requires     2854       0 words
 3E not storing unused equilibria from:            2
 3E Saving assessment record
 3E No experimental equilibrium range set
 3E allocating assessment head record          48
 3E no coefficients allocated
 3E no work array (assrec%wopt) allocated
Used    15059 words out of   122160,  12.33% for unformatted memory save
Written workspace      60236 bytes unformatted on ./OCoutput_matrix.OCU
--->OC6:--->OC6:Output on file: ./OCoutput_matrix.DAT
Output unit reset to screen:    6
--->OC6:--->OC6:
[OC output] ./OCoutput_matrix.DAT
----------------------------------------

%%%%%%%%%% OC output written: 2026-04-20  09h53

Output for equilibrium:   1, DEFAULT_EQUILIBRIUM          2026.04.20
Conditions .................................................:
  1:T=1140, 2:P=608000, 3:N(O)=0.665555, 4:N(PU)=.0940517, 5:N(U)=0.240394
 Degrees of freedom are   0

Some global data, reference state SER ......................:
T=   1140.00 K (   866.85 C), P=  6.0800E+05 Pa, V=  0.0000E+00 m3
N=   1.0000E+00 moles, B=   9.0823E+01 g, RT=   9.4785E+03 J/mol
G= -4.09108E+05 J, G/N=-4.0911E+05 J/mol, H=-3.3801E+05 J, S= 6.237E+01 J/K

Some data for components ...................................:
Component name    Moles      Mole-fr  Chem.pot/RT  Activities  Ref.state
O                 6.6556E-01  0.66555 -3.0954E+01  3.6041E-14  GAS             
PU                9.4052E-02  0.09405 -4.1839E+01  6.7558E-19  SER (default)   
U                 2.4039E-01  0.24039 -4.2688E+01  2.8883E-19  SER (default)   

Some data for phases .......................................:
[...]
Warning: No composition information available for thermochemistry variable CS2O2 (condensed, at grain boundary). Molar mass cannot be computed and will be returned as zero.
Warning: No composition information available for thermochemistry variable CS3O (condensed, at grain boundary). Molar mass cannot be computed and will be returned as zero.
Warning: No composition information available for thermochemistry variable CS4O (condensed, at grain boundary). Molar mass cannot be computed and will be returned as zero.
Warning: No composition information available for thermochemistry variable CS7O1 (condensed, at grain boundary). Molar mass cannot be computed and will be returned as zero.
Warning: No composition information available for thermochemistry variable CS7O2 (condensed, at grain boundary). Molar mass cannot be computed and will be returned as zero.
Warning: No composition information available for thermochemistry variable CSO2 (condensed, at grain boundary). Molar mass cannot be computed and will be returned as zero.
Warning: No composition information available for thermochemistry variable CSO3 (condensed, at grain boundary). Molar mass cannot be computed and will be returned as zero.
Warning: No composition information available for thermochemistry variable DIAMOND_A4 (condensed, at grain boundary). Molar mass cannot be computed and will be returned as zero.
Warning: No composition information available for thermochemistry variable DIS_SIG (condensed, at grain boundary). Molar mass cannot be computed and will be returned as zero.
Warning: No composition information available for thermochemistry variable FCC_A1 (condensed, at grain boundary). Molar mass cannot be computed and will be returned as zero.
Warning: No composition information available for thermochemistry variable HCP_A3 (condensed, at grain boundary). Molar mass cannot be computed and will be returned as zero.
Warning: No composition information available for thermochemistry variable MC_ETA (condensed, at grain boundary). Molar mass cannot be computed and will be returned as zero.
Warning: No composition information available for thermochemistry variable MO4O11 (condensed, at grain boundary). Molar mass cannot be computed and will be returned as zero.
Warning: No composition information available for thermochemistry variable MO8O23 (condensed, at grain boundary). Molar mass cannot be computed and will be returned as zero.
Warning: No composition information available for thermochemistry variable MO9O26 (condensed, at grain boundary). Molar mass cannot be computed and will be returned as zero.
Warning: No composition information available for thermochemistry variable MOO3 (condensed, at grain boundary). Molar mass cannot be computed and will be returned as zero.
Warning: No composition information available for thermochemistry variable ORTHORHOMBIC_A20 (condensed, at grain boundary). Molar mass cannot be computed and will be returned as zero.
Warning: No composition information available for thermochemistry variable SIGMA (condensed, at grain boundary). Molar mass cannot be computed and will be returned as zero.
Warning: No composition information available for thermochemistry variable TETRAGONAL_U (condensed, at grain boundary). Molar mass cannot be computed and will be returned as zero.
Warning: No composition information available for thermochemistry variable UO3 (condensed, at grain boundary). Molar mass cannot be computed and will be returned as zero.
Warning: No composition information available for thermochemistry variable U4O9_S1 (condensed, at grain boundary). Molar mass cannot be computed and will be returned as zero.
Warning: No composition information available for thermochemistry variable U4O9_S2 (condensed, at grain boundary). Molar mass cannot be computed and will be returned as zero.
Warning: No composition information available for thermochemistry variable U4O9_S3 (condensed, at grain boundary). Molar mass cannot be computed and will be returned as zero.
Warning: No composition information available for thermochemistry variable U3O8_S1 (condensed, at grain boundary). Molar mass cannot be computed and will be returned as zero.
Warning: No composition information available for thermochemistry variable U3O8_S2 (condensed, at grain boundary). Molar mass cannot be computed and will be returned as zero.
Warning: No composition information available for thermochemistry variable U3O8_S3 (condensed, at grain boundary). Molar mass cannot be computed and will be returned as zero.
Warning: No composition information available for thermochemistry variable U3O8_S4 (condensed, at grain boundary). Molar mass cannot be computed and will be returned as zero.
STOP Au revoir
STOP Au revoir
STOP Au revoir
STOP Au revoir
Warning: No composition information available for thermochemistry variable UO2:VA (ionic_liquid, at grain boundary). Molar mass cannot be computed and will be returned as zero.
Warning: No composition information available for thermochemistry variable U (ionic_liquid, at grain boundary). Molar mass cannot be computed and will be returned as zero.
Warning: No composition information available for thermochemistry variable O (ionic_liquid, at grain boundary). Molar mass cannot be computed and will be returned as zero.
Warning: No composition information available for thermochemistry variable BCC_A2 (condensed, at grain boundary). Molar mass cannot be computed and will be returned as zero.
Warning: No composition information available for thermochemistry variable C1_MO2 (condensed, at grain boundary). Molar mass cannot be computed and will be returned as zero.
Warning: No composition information available for thermochemistry variable C14_LAVES (condensed, at grain boundary). Molar mass cannot be computed and will be returned as zero.
Warning: No composition information available for thermochemistry variable C15_LAVES (condensed, at grain boundary). Molar mass cannot be computed and will be returned as zero.
Warning: No composition information available for thermochemistry variable CS2MO2O7_S1 (condensed, at grain boundary). Molar mass cannot be computed and will be returned as zero.
Warning: No composition information available for thermochemistry variable CS2MO2O7_S2 (condensed, at grain boundary). Molar mass cannot be computed and will be returned as zero.
Warning: No composition information available for thermochemistry variable CS2MO3O10 (condensed, at grain boundary). Molar mass cannot be computed and will be returned as zero.
Warning: No composition information available for thermochemistry variable CS2MO4O13 (condensed, at grain boundary). Molar mass cannot be computed and will be returned as zero.
Warning: No composition information available for thermochemistry variable CS2MO5O16 (condensed, at grain boundary). Molar mass cannot be computed and will be returned as zero.
Warning: No composition information available for thermochemistry variable CS2MO7O22 (condensed, at grain boundary). Molar mass cannot be computed and will be returned as zero.
Warning: No composition information available for thermochemistry variable CS2MOO4_S1 (condensed, at grain boundary). Molar mass cannot be computed and will be returned as zero.
Warning: No composition information available for thermochemistry variable CS2MOO4_S2 (condensed, at grain boundary). Molar mass cannot be computed and will be returned as zero.
Warning: No composition information available for thermochemistry variable CS2O1 (condensed, at grain boundary). Molar mass cannot be computed and will be returned as zero.
Warning: No composition information available for thermochemistry variable CS2O2 (condensed, at grain boundary). Molar mass cannot be computed and will be returned as zero.
Warning: No composition information available for thermochemistry variable CS3O (condensed, at grain boundary). Molar mass cannot be computed and will be returned as zero.
Warning: No composition information available for thermochemistry variable CS4O (condensed, at grain boundary). Molar mass cannot be computed and will be returned as zero.
Warning: No composition information available for thermochemistry variable CS7O1 (condensed, at grain boundary). Molar mass cannot be computed and will be returned as zero.
Warning: No composition information available for thermochemistry variable CS7O2 (condensed, at grain boundary). Molar mass cannot be computed and will be returned as zero.
Warning: No composition information available for thermochemistry variable CSO2 (condensed, at grain boundary). Molar mass cannot be computed and will be returned as zero.
Warning: No composition information available for thermochemistry variable CSO3 (condensed, at grain boundary). Molar mass cannot be computed and will be returned as zero.
Warning: No composition information available for thermochemistry variable DIAMOND_A4 (condensed, at grain boundary). Molar mass cannot be computed and will be returned as zero.
Warning: No composition information available for thermochemistry variable DIS_SIG (condensed, at grain boundary). Molar mass cannot be computed and will be returned as zero.
Warning: No composition information available for thermochemistry variable FCC_A1 (condensed, at grain boundary). Molar mass cannot be computed and will be returned as zero.
Warning: No composition information available for thermochemistry variable HCP_A3 (condensed, at grain boundary). Molar mass cannot be computed and will be returned as zero.
Warning: No composition information available for thermochemistry variable MC_ETA (condensed, at grain boundary). Molar mass cannot be computed and will be returned as zero.
Warning: No composition information available for thermochemistry variable MO4O11 (condensed, at grain boundary). Molar mass cannot be computed and will be returned as zero.
Warning: No composition information available for thermochemistry variable MO8O23 (condensed, at grain boundary). Molar mass cannot be computed and will be returned as zero.
Warning: No composition information available for thermochemistry variable MO9O26 (condensed, at grain boundary). Molar mass cannot be computed and will be returned as zero.
Warning: No composition information available for thermochemistry variable MOO3 (condensed, at grain boundary). Molar mass cannot be computed and will be returned as zero.
Warning: No composition information available for thermochemistry variable ORTHORHOMBIC_A20 (condensed, at grain boundary). Molar mass cannot be computed and will be returned as zero.
Warning: No composition information available for thermochemistry variable SIGMA (condensed, at grain boundary). Molar mass cannot be computed and will be returned as zero.
Warning: No composition information available for thermochemistry variable TETRAGONAL_U (condensed, at grain boundary). Molar mass cannot be computed and will be returned as zero.
Warning: No composition information available for thermochemistry variable UO3 (condensed, at grain boundary). Molar mass cannot be computed and will be returned as zero.
Warning: No composition information available for thermochemistry variable U4O9_S1 (condensed, at grain boundary). Molar mass cannot be computed and will be returned as zero.
Warning: No composition information available for thermochemistry variable U4O9_S2 (condensed, at grain boundary). Molar mass cannot be computed and will be returned as zero.
Warning: No composition information available for thermochemistry variable U4O9_S3 (condensed, at grain boundary). Molar mass cannot be computed and will be returned as zero.
Warning: No composition information available for thermochemistry variable U3O8_S1 (condensed, at grain boundary). Molar mass cannot be computed and will be returned as zero.
Warning: No composition information available for thermochemistry variable U3O8_S2 (condensed, at grain boundary). Molar mass cannot be computed and will be returned as zero.
Warning: No composition information available for thermochemistry variable U3O8_S3 (condensed, at grain boundary). Molar mass cannot be computed and will be returned as zero.
Warning: No composition information available for thermochemistry variable U3O8_S4 (condensed, at grain boundary). Molar mass cannot be computed and will be returned as zero.
STOP Au revoir
STOP Au revoir
STOP Au revoir
STOP Au revoir
Warning: No composition information available for thermochemistry variable UO2:VA (ionic_liquid, at grain boundary). Molar mass cannot be computed and will be returned as zero.
Warning: No composition information available for thermochemistry variable U (ionic_liquid, at grain boundary). Molar mass cannot be computed and will be returned as zero.
Warning: No composition information available for thermochemistry variable O (ionic_liquid, at grain boundary). Molar mass cannot be computed and will be returned as zero.
Warning: No composition information available for thermochemistry variable BCC_A2 (condensed, at grain boundary). Molar mass cannot be computed and will be returned as zero.
Warning: No composition information available for thermochemistry variable C1_MO2 (condensed, at grain boundary). Molar mass cannot be computed and will be returned as zero.
Warning: No composition information available for thermochemistry variable C14_LAVES (condensed, at grain boundary). Molar mass cannot be computed and will be returned as zero.
Warning: No composition information available for thermochemistry variable C15_LAVES (condensed, at grain boundary). Molar mass cannot be computed and will be returned as zero.
Warning: No composition information available for thermochemistry variable CS2MO2O7_S1 (condensed, at grain boundary). Molar mass cannot be computed and will be returned as zero.
Warning: No composition information available for thermochemistry variable CS2MO2O7_S2 (condensed, at grain boundary). Molar mass cannot be computed and will be returned as zero.
Warning: No composition information available for thermochemistry variable CS2MO3O10 (condensed, at grain boundary). Molar mass cannot be computed and will be returned as zero.
Warning: No composition information available for thermochemistry variable CS2MO4O13 (condensed, at grain boundary). Molar mass cannot be computed and will be returned as zero.
Warning: No composition information available for thermochemistry variable CS2MO5O16 (condensed, at grain boundary). Molar mass cannot be computed and will be returned as zero.
Warning: No composition information available for thermochemistry variable CS2MO7O22 (condensed, at grain boundary). Molar mass cannot be computed and will be returned as zero.
Warning: No composition information available for thermochemistry variable CS2MOO4_S1 (condensed, at grain boundary). Molar mass cannot be computed and will be returned as zero.
Warning: No composition information available for thermochemistry variable CS2MOO4_S2 (condensed, at grain boundary). Molar mass cannot be computed and will be returned as zero.
Warning: No composition information available for thermochemistry variable CS2O1 (condensed, at grain boundary). Molar mass cannot be computed and will be returned as zero.
Warning: No composition information available for thermochemistry variable CS2O2 (condensed, at grain boundary). Molar mass cannot be computed and will be returned as zero.
Warning: No composition information available for thermochemistry variable CS3O (condensed, at grain boundary). Molar mass cannot be computed and will be returned as zero.
Warning: No composition information available for thermochemistry variable CS4O (condensed, at grain boundary). Molar mass cannot be computed and will be returned as zero.
Warning: No composition information available for thermochemistry variable CS7O1 (condensed, at grain boundary). Molar mass cannot be computed and will be returned as zero.
Warning: No composition information available for thermochemistry variable CS7O2 (condensed, at grain boundary). Molar mass cannot be computed and will be returned as zero.
Warning: No composition information available for thermochemistry variable CSO2 (condensed, at grain boundary). Molar mass cannot be computed and will be returned as zero.
Warning: No composition information available for thermochemistry variable CSO3 (condensed, at grain boundary). Molar mass cannot be computed and will be returned as zero.
Warning: No composition information available for thermochemistry variable DIAMOND_A4 (condensed, at grain boundary). Molar mass cannot be computed and will be returned as zero.
Warning: No composition information available for thermochemistry variable DIS_SIG (condensed, at grain boundary). Molar mass cannot be computed and will be returned as zero.
Warning: No composition information available for thermochemistry variable FCC_A1 (condensed, at grain boundary). Molar mass cannot be computed and will be returned as zero.
Warning: No composition information available for thermochemistry variable HCP_A3 (condensed, at grain boundary). Molar mass cannot be computed and will be returned as zero.
Warning: No composition information available for thermochemistry variable MC_ETA (condensed, at grain boundary). Molar mass cannot be computed and will be returned as zero.
Warning: No composition information available for thermochemistry variable MO4O11 (condensed, at grain boundary). Molar mass cannot be computed and will be returned as zero.
Warning: No composition information available for thermochemistry variable MO8O23 (condensed, at grain boundary). Molar mass cannot be computed and will be returned as zero.
Warning: No composition information available for thermochemistry variable MO9O26 (condensed, at grain boundary). Molar mass cannot be computed and will be returned as zero.
Warning: No composition information available for thermochemistry variable MOO3 (condensed, at grain boundary). Molar mass cannot be computed and will be returned as zero.
Warning: No composition information available for thermochemistry variable ORTHORHOMBIC_A20 (condensed, at grain boundary). Molar mass cannot be computed and will be returned as zero.
Warning: No composition information available for thermochemistry variable SIGMA (condensed, at grain boundary). Molar mass cannot be computed and will be returned as zero.
Warning: No composition information available for thermochemistry variable TETRAGONAL_U (condensed, at grain boundary). Molar mass cannot be computed and will be returned as zero.
Warning: No composition information available for thermochemistry variable UO3 (condensed, at grain boundary). Molar mass cannot be computed and will be returned as zero.
Warning: No composition information available for thermochemistry variable U4O9_S1 (condensed, at grain boundary). Molar mass cannot be computed and will be returned as zero.
Warning: No composition information available for thermochemistry variable U4O9_S2 (condensed, at grain boundary). Molar mass cannot be computed and will be returned as zero.
Warning: No composition information available for thermochemistry variable U4O9_S3 (condensed, at grain boundary). Molar mass cannot be computed and will be returned as zero.
Warning: No composition information available for thermochemistry variable U3O8_S1 (condensed, at grain boundary). Molar mass cannot be computed and will be returned as zero.
Warning: No composition information available for thermochemistry variable U3O8_S2 (condensed, at grain boundary). Molar mass cannot be computed and will be returned as zero.
Warning: No composition information available for thermochemistry variable U3O8_S3 (condensed, at grain boundary). Molar mass cannot be computed and will be returned as zero.
Warning: No composition information available for thermochemistry variable U3O8_S4 (condensed, at grain boundary). Molar mass cannot be computed and will be returned as zero.
