Time (h)	Temperature (K)	Fission rate (fiss / m3 s)	Hydrostatic stress (MPa)	Grain radius (m)	Xe produced (at/m3)	Xe in grain (at/m3)	Xe in intragranular solution (at/m3)	Xe in intragranular bubbles (at/m3)	Xe at grain boundary (at/m3)	Xe released (at/m3)	Kr produced (at/m3)	Kr in grain (at/m3)	Kr in intragranular solution (at/m3)	Kr in intragranular bubbles (at/m3)	Kr at grain boundary (at/m3)	Kr released (at/m3)	Fission gas release (/)	Intragranular bubble concentration (bub/m3)	Intragranular bubble radius (m)	Intragranular gas bubble swelling (/)	Intergranular bubble concentration (bub/m2)	Intergranular atoms per bubble (at/bub)	Intergranular vacancies per bubble (vac/bub)	Intergranular bubble radius (m)	Intergranular bubble area (m2)	Intergranular bubble volume (m3)	Intergranular fractional coverage (/)	Intergranular saturation fractional coverage (/)	Intergranular gas swelling (/)	Intergranular fractional intactness (/)	Burnup (MWd/kgUO2)	U235 (at/m3)	U238 (at/m3)	
0	1273	1e+19	0	5e-06	0	0	0	0	0	0	0	0	0	0	0	0	0	0	0	0	4e+13	0	0	0	0	0	0	0.5	0	1	0	7.43262e+26	2.372858e+28	
55	1273	1e+19	0	5e-06	4.752e+23	4.490564e+23	4.490564e+23	0	2.61436e+22	0	5.94e+22	5.613205e+22	5.613205e+22	0	3.26795e+21	0	0	1.308758e+24	0	0	3.976259e+13	1232.798	1981.221	6.375315e-09	7.493094e-17	1.830117e-25	0.002979448	0.5	4.366212e-06	1	0.06517776	7.43262e+26	2.372858e+28	
110	1273	1e+19	0	5e-06	9.504e+23	8.92326e+23	6.411603e+23	2.511657e+23	5.807396e+22	0	1.188e+23	1.115408e+23	8.014504e+22	3.139572e+22	7.259245e+21	0	0	1.326059e+24	0	0	3.954566e+13	2753.493	6405.957	8.851333e-09	1.444359e-16	4.897787e-25	0.005711812	0.5	1.162117e-05	1	0.1303555	7.43262e+26	2.372858e+28	
165	1273	1e+19	0	5e-06	1.4256e+24	1.327414e+24	9.502471e+23	3.771673e+23	9.818556e+22	0	1.782e+23	1.659268e+23	1.187809e+23	4.714591e+22	1.227319e+22	0	0	1.326288e+24	1.276546e-10	1.155676e-05	3.929507e+13	4685.014	13966.11	1.107252e-08	2.260222e-16	9.587688e-25	0.008881558	0.5	2.260493e-05	1	0.1955333	7.43262e+26	2.372858e+28	
220	1273	1e+19	0	5e-06	1.9008e+24	1.757899e+24	1.170399e+24	5.874995e+23	1.429014e+23	0	2.376e+23	2.197373e+23	1.462999e+23	7.343744e+22	1.786267e+22	0	0	1.045959e+24	1.582227e-10	1.735441e-05	3.902655e+13	6865.584	24683.21	1.307164e-08	3.150052e-16	1.57748e-24	0.01229357	0.5	3.693816e-05	1	0.260711	7.43262e+26	2.372858e+28	
275	1273	1e+19	0	5e-06	2.376e+24	2.18037e+24	1.547218e+24	6.331519e+23	1.956298e+23	0	2.97e+23	2.725463e+23	1.934023e+23	7.914398e+22	2.445372e+22	0	0	9.892441e+23	1.868517e-10	2.703232e-05	3.872441e+13	9472.213	39612.61	1.504192e-08	4.171231e-16	2.403718e-24	0.01615285	0.5	5.584954e-05	1	0.3258888	7.43262e+26	2.372858e+28	
330	1273	1e+19	0	5e-06	2.8512e+24	2.597456e+24	1.858989e+24	7.384667e+23	2.537439e+23	0	3.564e+23	3.24682e+23	2.323737e+23	9.230833e+22	3.171799e+22	0	0	9.420048e+23	1.947215e-10	2.91329e-05	3.839918e+13	12390.11	58983.72	1.694666e-08	5.294515e-16	3.437371e-24	0.0203305	0.5	7.919534e-05	1	0.3910665	7.43262e+26	2.372858e+28	
385	1273	1e+19	0	5e-06	3.3264e+24	3.009399e+24	2.179607e+24	8.297922e+23	3.170012e+23	0	4.158e+23	3.761748e+23	2.724508e+23	1.03724e+23	3.962516e+22	0	0	9.293112e+23	2.058981e-10	3.39787e-05	3.805324e+13	15619.63	83192.6	1.880227e-08	6.517461e-16	4.694668e-24	0.02480105	0.5	0.0001071884	1	0.4562443	7.43262e+26	2.372858e+28	
440	1273	1e+19	0	5e-06	3.8016e+24	3.417023e+24	2.478209e+24	9.388148e+23	3.845766e+23	0	4.752e+23	4.271279e+23	3.097761e+23	1.173518e+23	4.807208e+22	0	0	9.122055e+23	2.153879e-10	3.818081e-05	3.769061e+13	19131.59	112497.1	2.061068e-08	7.831456e-16	6.183737e-24	0.02951724	0.5	0.0001398413	1	0.5214221	7.43262e+26	2.372858e+28	
495	1273	1e+19	0	5e-06	4.2768e+24	3.82049e+24	2.779704e+24	1.040787e+24	4.563098e+23	0	5.346e+23	4.775613e+23	3.47463e+23	1.300983e+23	5.703872e+22	0	0	8.979899e+23	2.256136e-10	4.319722e-05	3.731276e+13	22929.98	147281.5	2.238353e-08	9.236663e-16	7.920633e-24	0.03446455	0.5	0.0001773244	1	0.5865998	7.43262e+26	2.372858e+28	
550	1273	1e+19	0	5e-06	4.752e+24	4.22007e+24	3.077699e+24	1.142371e+24	5.319299e+23	0	5.94e+23	5.275088e+23	3.847124e+23	1.427963e+23	6.649124e+22	0	0	8.830742e+23	2.348104e-10	4.788919e-05	3.69212e+13	27013.44	187939.6	2.41286e-08	1.073302e-15	9.92134e-24	0.03962761	0.5	0.0002197847	1	0.6517776	7.43262e+26	2.372858e+28	
605	1273	1e+19	0	5e-06	5.2272e+24	4.615921e+24	3.376219e+24	1.239702e+24	6.112788e+23	0	6.534e+23	5.769902e+23	4.220274e+23	1.549628e+23	7.640984e+22	0	0	8.699533e+23	2.434255e-10	5.256333e-05	3.6517e+13	31386.69	234914.7	2.585318e-08	1.232213e-15	1.220439e-23	0.04499672	0.5	0.0002674005	1	0.7169553	7.43262e+26	2.372858e+28	
660	1273	1e+19	0	5e-06	5.7024e+24	5.008231e+24	3.67268e+24	1.335551e+24	6.941688e+23	0	7.128e+23	6.260289e+23	4.59085e+23	1.669439e+23	8.67711e+22	0	0	8.579304e+23	2.513145e-10	5.704179e-05	3.610124e+13	36053.23	288666	2.756259e-08	1.400548e-15	1.478884e-23	0.05056152	0.5	0.0003203373	1	0.7821331	7.43262e+26	2.372858e+28	
715	1273	1e+19	0	5e-06	6.1776e+24	5.397154e+24	3.9677e+24	1.429454e+24	7.804464e+23	0	7.722e+23	6.746442e+23	4.959625e+23	1.786817e+23	9.75558e+22	0	0	8.471363e+23	2.587209e-10	6.145206e-05	3.567493e+13	41018.64	349684.3	2.926134e-08	1.578506e-15	1.769524e-23	0.05631308	0.5	0.0003787658	1	0.8473108	7.43262e+26	2.372858e+28	
770	1273	1e+19	0	5e-06	6.6528e+24	5.782833e+24	4.260823e+24	1.52201e+24	8.699672e+23	0	8.316e+23	7.228541e+23	5.326029e+23	1.902512e+23	1.087459e+23	0	0	8.371892e+23	2.656917e-10	6.577275e-05	3.523898e+13	46289.32	418490	3.095315e-08	1.766313e-15	2.094539e-23	0.06224305	0.5	0.0004428566	1	0.9124886	7.43262e+26	2.372858e+28	
825	1273	1e+19	0	5e-06	7.128e+24	6.165393e+24	4.552355e+24	1.613038e+24	9.626068e+23	0	8.91e+23	7.706742e+23	5.690444e+23	2.016298e+23	1.203258e+23	0	0	8.279868e+23	2.72308e-10	7.003147e-05	3.479424e+13	51873.17	495641.2	3.264134e-08	1.964236e-15	2.456279e-23	0.0683441	0.5	0.0005127862	1	0.9776664	7.43262e+26	2.372858e+28	
880	1273	1e+19	0	5e-06	7.6032e+24	6.544948e+24	4.842284e+24	1.702664e+24	1.058252e+24	0	9.504e+23	8.181185e+23	6.052855e+23	2.128329e+23	1.322815e+23	0	0	8.193927e+23	2.785992e-10	7.421992e-05	3.434149e+13	57779.17	581736.2	3.432881e-08	2.172578e-15	2.857263e-23	0.07460956	0.5	0.000588736	1	1.042844	7.43262e+26	2.372858e+28	
935	1273	1e+19	0	5e-06	8.0784e+24	6.921598e+24	5.130709e+24	1.790889e+24	1.156802e+24	0	1.0098e+24	8.651998e+23	6.413387e+23	2.238611e+23	1.446002e+23	0	0	8.113445e+23	2.846013e-10	7.834381e-05	3.388145e+13	64017.44	677417.1	3.601822e-08	2.391676e-15	3.300203e-23	0.08103343	0.5	0.0006708938	1	1.108022	7.43262e+26	2.372858e+28	
990	1273	1e+19	0	5e-06	8.5536e+24	7.295437e+24	5.417638e+24	1.877799e+24	1.258163e+24	0	1.0692e+24	9.119296e+23	6.772048e+23	2.347248e+23	1.572704e+23	0	0	8.037766e+23	2.9034e-10	8.240326e-05	3.341479e+13	70599.14	783373.3	3.771195e-08	2.621898e-15	3.788009e-23	0.08761019	0.5	0.0007594532	1	1.1732	7.43262e+26	2.372858e+28	
1045	1273	1e+19	0	5e-06	9.0288e+24	7.666549e+24	5.703104e+24	1.963445e+24	1.362251e+24	0	1.1286e+24	9.583187e+23	7.12888e+23	2.454306e+23	1.702813e+23	0	0	7.966396e+23	2.958408e-10	8.640221e-05	3.294217e+13	77536.49	900345.4	3.941222e-08	2.863648e-15	4.323812e-23	0.09433479	0.5	0.0008546143	1	1.238377	7.43262e+26	2.372858e+28	
1100	1273	1e+19	0	5e-06	9.504e+24	8.035014e+24	5.987127e+24	2.047888e+24	1.468986e+24	0	1.188e+24	1.004377e+24	7.483909e+23	2.559859e+23	1.836232e+23	0	0	7.898874e+23	3.011251e-10	9.034301e-05	3.246416e+13	84842.72	1029129	4.112109e-08	3.117361e-15	4.910976e-23	0.1012025	0.5	0.0009565843	1	1.303555	7.43262e+26	2.372858e+28	
1155	1273	1e+19	0	5e-06	9.9792e+24	8.400905e+24	6.269733e+24	2.131172e+24	1.578295e+24	0	1.2474e+24	1.050113e+24	7.837166e+23	2.663965e+23	1.972869e+23	0	0	7.834818e+23	3.062115e-10	9.422843e-05	3.198135e+13	92532.15	1170580	4.284048e-08	3.383503e-15	5.553119e-23	0.108209	0.5	0.001065578	1	1.368733	7.43262e+26	2.372858e+28	
1210	1273	1e+19	0	5e-06	1.04544e+25	8.764288e+24	6.550945e+24	2.213343e+24	1.690112e+24	0	1.3068e+24	1.095536e+24	8.188682e+23	2.766679e+23	2.112639e+23	0	0	7.773894e+23	3.11116e-10	9.806055e-05	3.149428e+13	100620.2	1325619	4.457224e-08	3.662577e-15	6.254136e-23	0.1153502	0.5	0.001181817	1	1.433911	7.43262e+26	2.372858e+28	
1265	1273	1e+19	0	5e-06	1.09296e+25	9.125228e+24	6.830788e+24	2.29444e+24	1.804372e+24	0	1.3662e+24	1.140654e+24	8.538485e+23	2.86805e+23	2.255465e+23	0	0	7.71582e+23	3.158527e-10	0.0001018414	3.100344e+13	109123.3	1495238	4.631812e-08	3.955119e-15	7.018214e-23	0.1226223	0.5	0.001305533	1	1.499088	7.43262e+26	2.372858e+28	
1320	1273	1e+19	0	5e-06	1.14048e+25	9.483784e+24	7.109282e+24	2.374502e+24	1.921016e+24	0	1.4256e+24	1.185473e+24	8.886602e+23	2.968128e+23	2.40127e+23	0	0	7.660351e+23	3.204339e-10	0.0001055729	3.050933e+13	118059.1	1680502	4.807981e-08	4.261704e-15	7.849863e-23	0.1300217	0.5	0.001436965	1	1.564266	7.43262e+26	2.372858e+28	
1375	1273	1e+19	0	5e-06	1.188e+25	9.84001e+24	7.386446e+24	2.453564e+24	2.03999e+24	0	1.485e+24	1.230001e+24	9.233058e+23	3.066955e+23	2.549987e+23	0	0	7.60727e+23	3.248705e-10	0.0001092568	3.001243e+13	127446.6	1882561	4.985896e-08	4.582941e-15	8.753941e-23	0.1375452	0.5	0.001576362	1	1.629444	7.43262e+26	2.372858e+28	
1430	1273	1e+19	0	5e-06	1.23552e+25	1.019396e+25	7.662302e+24	2.531658e+24	2.16124e+24	0	1.5444e+24	1.274245e+24	9.577877e+23	3.164573e+23	2.70155e+23	0	0	7.556389e+23	3.291724e-10	0.0001128946	2.951316e+13	137305.7	2102654	5.165719e-08	4.919481e-15	9.735677e-23	0.1451894	0.5	0.001723983	1	1.694622	7.43262e+26	2.372858e+28	
1485	1273	1e+19	0	5e-06	1.28304e+25	1.054568e+25	7.936865e+24	2.608817e+24	2.284718e+24	0	1.6038e+24	1.31821e+24	9.921082e+23	3.261021e+23	2.855898e+23	0	0	7.507541e+23	3.333483e-10	0.0001164879	2.901196e+13	147658	2342115	5.347606e-08	5.272016e-15	1.080071e-22	0.1529515	0.5	0.001880098	1	1.759799	7.43262e+26	2.372858e+28	
1540	1273	1e+19	0	5e-06	1.33056e+25	1.089522e+25	8.210155e+24	2.685068e+24	2.410377e+24	0	1.6632e+24	1.361903e+24	1.026269e+24	3.356335e+23	3.012971e+23	0	0	7.460575e+23	3.37406e-10	0.0001200382	2.850923e+13	158526.1	2602383	5.531716e-08	5.641279e-15	1.195511e-22	0.1608285	0.5	0.002044986	1	1.824977	7.43262e+26	2.372858e+28	
1595	1273	1e+19	0	5e-06	1.37808e+25	1.124263e+25	8.482187e+24	2.76044e+24	2.538173e+24	0	1.7226e+24	1.405328e+24	1.060273e+24	3.45055e+23	3.172716e+23	0	0	7.415359e+23	3.413528e-10	0.0001235467	2.800538e+13	169934.3	2885012	5.718203e-08	6.028052e-15	1.320543e-22	0.1688179	0.5	0.002218939	1	1.890155	7.43262e+26	2.372858e+28	
1650	1273	1e+19	0	5e-06	1.4256e+25	1.158794e+25	8.752978e+24	2.834959e+24	2.668063e+24	0	1.782e+24	1.448492e+24	1.094122e+24	3.543698e+23	3.335079e+23	0	0	7.371773e+23	3.45195e-10	0.0001270148	2.750076e+13	181908.4	3191678	5.907223e-08	6.433163e-15	1.455875e-22	0.1769169	0.5	0.00240226	1	1.955333	7.43262e+26	2.372858e+28	
1705	1273	1e+19	0	5e-06	1.47312e+25	1.193119e+25	9.022543e+24	2.908648e+24	2.800009e+24	0	1.8414e+24	1.491399e+24	1.127818e+24	3.63581e+23	3.500011e+23	0	0	7.329711e+23	3.489386e-10	0.0001304435	2.699575e+13	194475.7	3524188	6.098931e-08	6.857491e-15	1.602268e-22	0.1851231	0.5	0.002595265	1	2.02051	7.43262e+26	2.372858e+28	
1760	1273	1e+19	0	5e-06	1.52064e+25	1.227243e+25	9.290897e+24	2.981531e+24	2.933971e+24	0	1.9008e+24	1.534054e+24	1.161362e+24	3.726914e+23	3.667464e+23	0	0	7.289074e+23	3.525889e-10	0.0001338342	2.64907e+13	207665.2	3884498	6.293483e-08	7.301969e-15	1.760545e-22	0.1934342	0.5	0.002798284	1	2.085688	7.43262e+26	2.372858e+28	
1815	1273	1e+19	0	5e-06	1.56816e+25	1.261169e+25	9.558054e+24	3.053631e+24	3.069915e+24	0	1.9602e+24	1.576461e+24	1.194757e+24	3.817039e+23	3.837394e+23	0	0	7.249774e+23	3.561509e-10	0.0001371877	2.598593e+13	221507.9	4274718	6.491038e-08	7.767586e-15	1.931596e-22	0.201848	0.5	0.003011659	1	2.150866	7.43262e+26	2.372858e+28	
1870	1273	1e+19	0	5e-06	1.61568e+25	1.2949e+25	9.824028e+24	3.124967e+24	3.207805e+24	0	2.0196e+24	1.618624e+24	1.228004e+24	3.906209e+23	4.009756e+23	0	0	7.211731e+23	3.59629e-10	0.0001405052	2.548178e+13	236036.6	4697130	6.691754e-08	8.255393e-15	2.116381e-22	0.2103621	0.5	0.003235749	1	2.216044	7.43262e+26	2.372858e+28	
1925	1273	1e+19	0	5e-06	1.6632e+25	1.328439e+25	1.008883e+25	3.195559e+24	3.347607e+24	0	2.079e+24	1.660549e+24	1.261104e+24	3.994449e+23	4.184509e+23	0	0	7.174873e+23	3.630275e-10	0.0001437875	2.497855e+13	251286.2	5154202	6.895795e-08	8.766505e-15	2.315938e-22	0.2189746	0.5	0.003470926	1	2.281222	7.43262e+26	2.372858e+28	
1980	1273	1e+19	0	5e-06	1.71072e+25	1.361791e+25	1.035248e+25	3.265427e+24	3.489292e+24	0	2.1384e+24	1.702239e+24	1.29406e+24	4.081784e+23	4.361615e+23	0	0	7.139131e+23	3.663501e-10	0.0001470357	2.447654e+13	267293.5	5648602	7.103325e-08	9.302104e-15	2.531389e-22	0.2276834	0.5	0.00371758	1	2.346399	7.43262e+26	2.372858e+28	
2035	1273	1e+19	0	5e-06	1.75824e+25	1.394957e+25	1.061498e+25	3.334589e+24	3.632827e+24	0	2.1978e+24	1.743697e+24	1.326873e+24	4.168236e+23	4.541034e+23	0	0	7.104445e+23	3.696003e-10	0.0001502505	2.397605e+13	284098.1	6183221	7.314513e-08	9.863445e-15	2.76395e-22	0.2364865	0.5	0.003976116	1	2.411577	7.43262e+26	2.372858e+28	
2090	1273	1e+19	0	5e-06	1.80576e+25	1.427942e+25	1.087636e+25	3.40306e+24	3.778184e+24	0	2.2572e+24	1.784927e+24	1.359544e+24	4.253825e+23	4.72273e+23	0	0	7.070758e+23	3.727816e-10	0.0001534328	2.347735e+13	301741.6	6761188	7.529531e-08	1.045186e-14	3.014933e-22	0.2453821	0.5	0.004246959	1	2.476755	7.43262e+26	2.372858e+28	
2145	1273	1e+19	0	5e-06	1.85328e+25	1.460747e+25	1.113661e+25	3.470859e+24	3.925334e+24	0	2.3166e+24	1.825933e+24	1.392076e+24	4.338574e+23	4.906668e+23	0	0	7.038017e+23	3.75897e-10	0.0001565833	2.298071e+13	320268.6	7385892	7.748556e-08	1.106877e-14	3.285763e-22	0.2543683	0.5	0.004530551	1	2.541933	7.43262e+26	2.372858e+28	
2200	1273	1e+19	0	5e-06	1.9008e+25	1.493375e+25	1.139575e+25	3.538e+24	4.074251e+24	0	2.376e+24	1.866719e+24	1.424469e+24	4.4225e+23	5.092814e+23	0	0	7.006175e+23	3.789493e-10	0.0001597029	2.24864e+13	339726.4	8061010	7.97177e-08	1.171568e-14	3.577982e-22	0.2634433	0.5	0.004827356	1	2.60711	7.43262e+26	2.372858e+28	
2255	1273	1e+19	0	5e-06	1.94832e+25	1.525829e+25	1.165379e+25	3.604498e+24	4.224909e+24	0	2.4354e+24	1.907286e+24	1.456724e+24	4.505623e+23	5.281136e+23	0	0	6.975188e+23	3.819411e-10	0.0001627922	2.199465e+13	360165.1	8790528	8.19936e-08	1.239418e-14	3.893263e-22	0.2726055	0.5	0.005137856	1	2.672288	7.43262e+26	2.372858e+28	
2310	1273	1e+19	0	5e-06	1.99584e+25	1.558112e+25	1.191075e+25	3.670368e+24	4.377282e+24	0	2.4948e+24	1.94764e+24	1.488844e+24	4.58796e+23	5.471603e+23	0	0	6.945013e+23	3.84875e-10	0.000165852	2.15057e+13	381638.5	9578772	8.431517e-08	1.310597e-14	4.233418e-22	0.2818532	0.5	0.005462558	1	2.737466	7.43262e+26	2.372858e+28	
2365	1273	1e+19	0	5e-06	2.04336e+25	1.590225e+25	1.216663e+25	3.735624e+24	4.531346e+24	0	2.5542e+24	1.987782e+24	1.520829e+24	4.66953e+23	5.664183e+23	0	0	6.915613e+23	3.877532e-10	0.0001688828	2.10198e+13	404203.3	1.043044e+07	8.668442e-08	1.385288e-14	4.600416e-22	0.2911847	0.5	0.00580199	1	2.802644	7.43262e+26	2.372858e+28	
2420	1273	1e+19	0	5e-06	2.09088e+25	1.622172e+25	1.242144e+25	3.800278e+24	4.687078e+24	0	2.6136e+24	2.027715e+24	1.55268e+24	4.750347e+23	5.858848e+23	0	0	6.886951e+23	3.90578e-10	0.0001718854	2.053716e+13	427920.4	1.135064e+07	8.910341e-08	1.463681e-14	4.996396e-22	0.3005986	0.5	0.006156708	1	2.867821	7.43262e+26	2.372858e+28	
2475	1273	1e+19	0	5e-06	2.1384e+25	1.653954e+25	1.26752e+25	3.864344e+24	4.844455e+24	0	2.673e+24	2.067443e+24	1.5844e+24	4.83043e+23	6.055569e+23	0	0	6.858994e+23	3.933514e-10	0.0001748603	2.0058e+13	452854.4	1.234492e+07	9.157426e-08	1.545983e-14	5.423682e-22	0.3100932	0.5	0.006527292	1	2.932999	7.43262e+26	2.372858e+28	
2530	1273	1e+19	0	5e-06	2.18592e+25	1.685574e+25	1.292791e+25	3.927833e+24	5.003455e+24	0	2.7324e+24	2.106968e+24	1.615989e+24	4.909791e+23	6.254319e+23	0	0	6.831712e+23	3.960753e-10	0.0001778081	1.958251e+13	479074.4	1.341931e+07	9.40992e-08	1.632412e-14	5.884801e-22	0.3196672	0.5	0.00691435	1	2.998177	7.43262e+26	2.372858e+28	
2585	1273	1e+19	0	5e-06	2.23344e+25	1.717034e+25	1.317959e+25	3.990758e+24	5.164057e+24	0	2.7918e+24	2.146293e+24	1.647448e+24	4.988447e+23	6.455072e+23	0	0	6.805074e+23	3.987516e-10	0.0001807294	1.91109e+13	506653.8	1.458041e+07	9.668053e-08	1.723201e-14	6.382502e-22	0.3293191	0.5	0.00731852	1	3.063355	7.43262e+26	2.372858e+28	
2640	1273	1e+19	0	5e-06	2.28096e+25	1.748336e+25	1.343023e+25	4.053129e+24	5.326241e+24	0	2.8512e+24	2.18542e+24	1.678779e+24	5.066411e+23	6.657801e+23	0	0	6.779054e+23	4.013819e-10	0.0001836247	1.864334e+13	535671.2	1.583536e+07	9.932064e-08	1.818598e-14	6.919782e-22	0.3390476	0.5	0.007740472	1	3.128532	7.43262e+26	2.372858e+28	
2695	1273	1e+19	0	5e-06	2.32848e+25	1.779481e+25	1.367986e+25	4.114958e+24	5.489986e+24	0	2.9106e+24	2.224352e+24	1.709982e+24	5.143697e+23	6.862482e+23	0	0	6.753626e+23	4.039679e-10	0.0001864946	1.818003e+13	566210.4	1.719198e+07	1.02022e-07	1.91887e-14	7.499903e-22	0.3488513	0.5	0.008180909	1	3.19371	7.43262e+26	2.372858e+28	
2750	1273	1e+19	0	5e-06	2.376e+25	1.810473e+25	1.392847e+25	4.176255e+24	5.655273e+24	0	2.97e+24	2.263091e+24	1.741059e+24	5.220318e+23	7.069091e+23	0	0	6.728766e+23	4.065111e-10	0.0001893395	1.772113e+13	598361.1	1.86588e+07	1.047873e-07	2.0243e-14	8.126426e-22	0.3587289	0.5	0.008640568	1	3.258888	7.43262e+26	2.372858e+28	
2805	1273	1e+19	0	5e-06	2.42352e+25	1.841312e+25	1.417609e+25	4.23703e+24	5.822083e+24	0	3.0294e+24	2.30164e+24	1.772011e+24	5.296287e+23	7.277604e+23	0	0	6.704451e+23	4.090129e-10	0.0001921599	1.726681e+13	632219.2	2.024511e+07	1.076191e-07	2.135191e-14	8.803236e-22	0.3686793	0.5	0.009120227	1	3.324066	7.43262e+26	2.372858e+28	
2860	1273	1e+19	0	5e-06	2.47104e+25	1.872e+25	1.442271e+25	4.297293e+24	5.990399e+24	0	3.0888e+24	2.34e+24	1.802838e+24	5.371616e+23	7.487999e+23	0	0	6.68066e+23	4.114747e-10	0.0001949563	1.681721e+13	667887	2.196109e+07	1.105204e-07	2.251867e-14	9.534575e-22	0.3787013	0.5	0.009620699	1	3.389243	7.43262e+26	2.372858e+28	
2915	1273	1e+19	0	5e-06	2.51856e+25	1.90254e+25	1.466834e+25	4.357054e+24	6.160202e+24	0	3.1482e+24	2.378175e+24	1.833543e+24	5.446317e+23	7.700252e+23	0	0	6.657373e+23	4.138978e-10	0.0001977292	1.63725e+13	705474.4	2.381784e+07	1.134941e-07	2.374675e-14	1.032508e-21	0.3887936	0.5	0.01014284	1	3.454421	7.43262e+26	2.372858e+28	
2970	1273	1e+19	0	5e-06	2.56608e+25	1.932932e+25	1.4913e+25	4.416321e+24	6.331475e+24	0	3.2076e+24	2.416166e+24	1.864125e+24	5.520401e+23	7.914344e+23	0	0	6.634571e+23	4.162834e-10	0.0002004789	1.593281e+13	745098.8	2.582754e+07	1.165432e-07	2.503986e-14	1.117983e-21	0.3989553	0.5	0.01068756	1	3.519599	7.43262e+26	2.372858e+28	
3025	1273	1e+19	0	5e-06	2.6136e+25	1.96318e+25	1.515669e+25	4.475104e+24	6.504202e+24	0	3.267e+24	2.453975e+24	1.894587e+24	5.59388e+23	8.130252e+23	0	0	6.612236e+23	4.186327e-10	0.000203206	1.549827e+13	786886.3	2.80035e+07	1.196711e-07	2.640198e-14	1.210436e-21	0.4091851	0.5	0.0112558	1	3.584777	7.43262e+26	2.372858e+28	
3080	1273	1e+19	0	5e-06	2.66112e+25	1.993283e+25	1.539942e+25	4.533411e+24	6.678365e+24	0	3.3264e+24	2.491604e+24	1.924928e+24	5.666763e+23	8.347957e+23	0	0	6.590351e+23	4.209468e-10	0.0002059107	1.506902e+13	830971.9	3.036033e+07	1.228811e-07	2.783737e-14	1.310477e-21	0.419482	0.5	0.01184857	1	3.649954	7.43262e+26	2.372858e+28	
3135	1273	1e+19	0	5e-06	2.70864e+25	2.023245e+25	1.56412e+25	4.59125e+24	6.85395e+24	0	3.3858e+24	2.529056e+24	1.95515e+24	5.739062e+23	8.567438e+23	0	0	6.5689e+23	4.232269e-10	0.0002085936	1.464518e+13	877500.6	3.291403e+07	1.261768e-07	2.935061e-14	1.418773e-21	0.429845	0.5	0.01246691	1	3.715132	7.43262e+26	2.372858e+28	
3190	1273	1e+19	0	5e-06	2.75616e+25	2.053066e+25	1.588203e+25	4.648629e+24	7.030941e+24	0	3.4452e+24	2.566332e+24	1.985254e+24	5.810786e+23	8.788676e+23	0	0	6.547867e+23	4.254737e-10	0.0002112549	1.422687e+13	926627.9	3.568217e+07	1.295619e-07	3.094658e-14	1.536053e-21	0.440273	0.5	0.01311194	1	3.78031	7.43262e+26	2.372858e+28	
3245	1273	1e+19	0	5e-06	2.80368e+25	2.082748e+25	1.612192e+25	4.705557e+24	7.209322e+24	0	3.5046e+24	2.603435e+24	2.01524e+24	5.881946e+23	9.011653e+23	0	0	6.527239e+23	4.276885e-10	0.000213895	1.381419e+13	978521	3.868404e+07	1.330404e-07	3.263057e-14	1.663123e-21	0.4507651	0.5	0.01378482	1	3.845488	7.43262e+26	2.372858e+28	
3300	1273	1e+19	0	5e-06	2.8512e+25	2.112292e+25	1.636088e+25	4.76204e+24	7.389079e+24	0	3.564e+24	2.640365e+24	2.04511e+24	5.95255e+23	9.236349e+23	0	0	6.507001e+23	4.29872e-10	0.0002165144	1.340726e+13	1033360	4.194085e+07	1.366162e-07	3.440822e-14	1.800862e-21	0.46132	0.5	0.01448678	1	3.910665	7.43262e+26	2.372858e+28	
3355	1273	1e+19	0	5e-06	2.89872e+25	2.1417e+25	1.659892e+25	4.818086e+24	7.570198e+24	0	3.6234e+24	2.677125e+24	2.074864e+24	6.022607e+23	9.462748e+23	0	0	6.48714e+23	4.320251e-10	0.0002191134	1.300618e+13	1091337	4.547592e+07	1.402937e-07	3.62856e-14	1.950243e-21	0.4719369	0.5	0.01521912	1	3.975843	7.43262e+26	2.372858e+28	
3410	1273	1e+19	0	5e-06	2.94624e+25	2.170974e+25	1.683603e+25	4.873702e+24	7.752664e+24	0	3.6828e+24	2.713717e+24	2.104504e+24	6.092128e+23	9.690831e+23	0	0	6.467645e+23	4.341487e-10	0.0002216922	1.261103e+13	1152661	4.931492e+07	1.440775e-07	3.826924e-14	2.112331e-21	0.4826146	0.5	0.0159832	1	4.041021	7.43262e+26	2.372858e+28	
3465	1273	1e+19	0	5e-06	2.99376e+25	2.200114e+25	1.707224e+25	4.928896e+24	7.936464e+24	0	3.7422e+24	2.750142e+24	2.13403e+24	6.16112e+23	9.920581e+23	0	0	6.448503e+23	4.362436e-10	0.0002242512	1.222192e+13	1217556	5.348613e+07	1.479721e-07	4.036616e-14	2.288302e-21	0.4933521	0.5	0.01678047	1	4.106199	7.43262e+26	2.372858e+28	
3520	1273	1e+19	0	5e-06	3.04128e+25	2.229122e+25	1.730754e+25	4.983673e+24	8.03814e+24	8.344464e+22	3.8016e+24	2.786402e+24	2.163443e+24	6.229591e+23	1.004768e+24	1.043058e+22	0.002743734	6.429703e+23	4.383106e-10	0.0002267908	1.179013e+13	1278316	5.76623e+07	1.51669e-07	4.240834e-14	2.464133e-21	0.5	0.5	0.01743147	1	4.171376	7.43262e+26	2.372858e+28	
3575	1273	1e+19	0	5e-06	3.0888e+25	2.257999e+25	1.754195e+25	5.03804e+24	8.014901e+24	2.931115e+23	3.861e+24	2.822498e+24	2.192743e+24	6.29755e+23	1.001863e+24	3.663894e+22	0.009489496	6.411234e+23	4.403504e-10	0.0002293112	1.131292e+13	1328387	6.141307e+07	1.548348e-07	4.419724e-14	2.621682e-21	0.5	0.5	0.01779533	1	4.236554	7.43262e+26	2.372858e+28	
3630	1273	1e+19	0	5e-06	3.13632e+25	2.286746e+25	1.777546e+25	5.092004e+24	8.009232e+24	4.865032e+23	3.9204e+24	2.858433e+24	2.221933e+24	6.365005e+23	1.001154e+24	6.08129e+22	0.01551191	6.393086e+23	4.423637e-10	0.0002318128	1.088919e+13	1379102	6.508811e+07	1.578186e-07	4.591708e-14	2.776186e-21	0.5	0.5	0.01813826	1	4.301732	7.43262e+26	2.372858e+28	
3685	1273	1e+19	0	5e-06	3.18384e+25	2.315366e+25	1.800809e+25	5.145571e+24	8.011987e+24	6.72753e+23	3.9798e+24	2.894208e+24	2.251011e+24	6.431964e+23	1.001498e+24	8.409413e+22	0.02113024	6.375249e+23	4.443511e-10	0.0002342958	1.049609e+13	1431245	6.883143e+07	1.607468e-07	4.76368e-14	2.933601e-21	0.5	0.5	0.0184748	1	4.36691	7.43262e+26	2.372858e+28	
3740	1273	1e+19	0	5e-06	3.23136e+25	2.343859e+25	1.823984e+25	5.198746e+24	8.018909e+24	8.561057e+23	4.0392e+24	2.929823e+24	2.27998e+24	6.498433e+23	1.002364e+24	1.070132e+23	0.02649367	6.357714e+23	4.463134e-10	0.0002367606	1.012321e+13	1485246	7.272146e+07	1.636805e-07	4.939147e-14	3.09717e-21	0.5	0.5	0.01881198	1	4.432088	7.43262e+26	2.372858e+28	
3795	1273	1e+19	0	5e-06	3.27888e+25	2.372225e+25	1.847072e+25	5.251537e+24	8.027993e+24	1.038554e+24	4.0986e+24	2.965282e+24	2.30884e+24	6.564421e+23	1.003499e+24	1.298192e+23	0.03167405	6.340473e+23	4.482511e-10	0.0002392073	9.765688e+12	1541365	7.68042e+07	1.666498e-07	5.119967e-14	3.268797e-21	0.5	0.5	0.01915323	1	4.497265	7.43262e+26	2.372858e+28	
3850	1273	1e+19	0	5e-06	3.3264e+25	2.400467e+25	1.870073e+25	5.303947e+24	8.038292e+24	1.221034e+24	4.158e+24	3.000584e+24	2.337591e+24	6.629934e+23	1.004786e+24	1.526292e+23	0.03670736	6.323515e+23	4.50165e-10	0.0002416363	9.421168e+12	1599780	8.110984e+07	1.696695e-07	5.307198e-14	3.44973e-21	0.5	0.5	0.01950029	1	4.562443	7.43262e+26	2.372858e+28	
3905	1273	1e+19	0	5e-06	3.37392e+25	2.428586e+25	1.892988e+25	5.355983e+24	8.049361e+24	1.403978e+24	4.2174e+24	3.035733e+24	2.366235e+24	6.694979e+23	1.00617e+24	1.754972e+23	0.04161265	6.306834e+23	4.520554e-10	0.0002440479	9.088426e+12	1660634	8.566094e+07	1.727475e-07	5.501503e-14	3.640904e-21	0.5	0.5	0.01985405	1	4.627621	7.43262e+26	2.372858e+28	
3960	1273	1e+19	0	5e-06	3.42144e+25	2.456582e+25	1.915817e+25	5.407651e+24	8.060998e+24	1.587577e+24	4.2768e+24	3.070728e+24	2.394772e+24	6.759563e+23	1.007625e+24	1.984472e+23	0.04640085	6.290421e+23	4.539231e-10	0.0002464422	8.76677e+12	1724052	9.047658e+07	1.75888e-07	5.703355e-14	3.84311e-21	0.5	0.5	0.020215	1	4.692799	7.43262e+26	2.372858e+28	
4015	1273	1e+19	0	5e-06	3.46896e+25	2.484458e+25	1.938562e+25	5.458955e+24	8.073119e+24	1.771906e+24	4.3362e+24	3.105572e+24	2.423203e+24	6.823693e+23	1.00914e+24	2.214882e+23	0.05107887	6.274269e+23	4.557684e-10	0.0002488195	8.455757e+12	1790153	9.557441e+07	1.790935e-07	5.913131e-14	4.057079e-21	0.5	0.5	0.0205834	1	4.757976	7.43262e+26	2.372858e+28	
4070	1273	1e+19	0	5e-06	3.51648e+25	2.512212e+25	1.961222e+25	5.5099e+24	8.085699e+24	1.956977e+24	4.3956e+24	3.140266e+24	2.451528e+24	6.887375e+23	1.010712e+24	2.446221e+23	0.05565158	6.25837e+23	4.575921e-10	0.0002511802	8.155059e+12	1859053	1.009717e+08	1.823654e-07	6.131164e-14	4.283528e-21	0.5	0.5	0.02095945	1	4.823154	7.43262e+26	2.372858e+28	
4125	1273	1e+19	0	5e-06	3.564e+25	2.539848e+25	1.983799e+25	5.560493e+24	8.098743e+24	2.142775e+24	4.455e+24	3.17481e+24	2.479749e+24	6.950616e+23	1.012343e+24	2.678469e+23	0.06012277	6.242719e+23	4.593944e-10	0.0002535243	7.864402e+12	1930871	1.066859e+08	1.857049e-07	6.357763e-14	4.523178e-21	0.5	0.5	0.02134325	1	4.888332	7.43262e+26	2.372858e+28	
4180	1273	1e+19	0	5e-06	3.61152e+25	2.567366e+25	2.006292e+25	5.610736e+24	8.112271e+24	2.329271e+24	4.5144e+24	3.209207e+24	2.507865e+24	7.01342e+23	1.014034e+24	2.911588e+23	0.06449557	6.227307e+23	4.61176e-10	0.0002558522	7.58354e+12	2005727	1.127347e+08	1.891124e-07	6.593227e-14	4.776769e-21	0.5	0.5	0.02173489	1	4.95351	7.43262e+26	2.372858e+28	
4235	1273	1e+19	0	5e-06	3.65904e+25	2.594766e+25	2.028703e+25	5.660636e+24	8.126312e+24	2.516423e+24	4.5738e+24	3.243458e+24	2.535879e+24	7.075795e+23	1.015789e+24	3.145528e+23	0.06877276	6.212129e+23	4.629373e-10	0.000258164	7.312238e+12	2083745	1.191367e+08	1.925888e-07	6.837852e-14	5.045065e-21	0.5	0.5	0.02213443	1	5.018687	7.43262e+26	2.372858e+28	
4290	1273	1e+19	0	5e-06	3.70656e+25	2.622051e+25	2.051031e+25	5.710197e+24	8.140903e+24	2.704187e+24	4.6332e+24	3.277564e+24	2.563789e+24	7.137747e+23	1.017613e+24	3.380234e+23	0.07295678	6.197178e+23	4.646788e-10	0.00026046	7.050268e+12	2165051	1.259109e+08	1.961342e-07	7.091929e-14	5.328853e-21	0.5	0.5	0.02254191	1	5.083865	7.43262e+26	2.372858e+28	
4345	1273	1e+19	0	5e-06	3.75408e+25	2.649221e+25	2.073278e+25	5.759424e+24	8.156079e+24	2.892515e+24	4.6926e+24	3.311526e+24	2.591598e+24	7.199279e+23	1.01951e+24	3.615644e+23	0.07704991	6.182449e+23	4.664008e-10	0.0002627404	6.797404e+12	2249778	1.330769e+08	1.99749e-07	7.355749e-14	5.628952e-21	0.5	0.5	0.02295736	1	5.149043	7.43262e+26	2.372858e+28	
4400	1273	1e+19	0	5e-06	3.8016e+25	2.676276e+25	2.095444e+25	5.80832e+24	8.171884e+24	3.081357e+24	4.752e+24	3.345345e+24	2.619305e+24	7.2604e+23	1.021486e+24	3.851696e+23	0.08105422	6.167937e+23	4.681037e-10	0.0002650055	6.553424e+12	2338058	1.406551e+08	2.034333e-07	7.6296e-14	5.946204e-21	0.5	0.5	0.0233808	1	5.214221	7.43262e+26	2.372858e+28	
4455	1273	1e+19	0	5e-06	3.84912e+25	2.703218e+25	2.117529e+25	5.85689e+24	8.18836e+24	3.27066e+24	4.8114e+24	3.379023e+24	2.646911e+24	7.321113e+23	1.023545e+24	4.088325e+23	0.08497163	6.153634e+23	4.697881e-10	0.0002672553	6.318103e+12	2430029	1.486666e+08	2.071871e-07	7.913767e-14	6.281482e-21	0.5	0.5	0.02381223	1	5.279398	7.43262e+26	2.372858e+28	
4510	1273	1e+19	0	5e-06	3.89664e+25	2.730048e+25	2.139534e+25	5.905139e+24	8.205551e+24	3.46037e+24	4.8708e+24	3.41256e+24	2.674417e+24	7.381424e+23	1.025694e+24	4.325462e+23	0.08880394	6.139537e+23	4.714543e-10	0.0002694902	6.091222e+12	2525833	1.57133e+08	2.110104e-07	8.208534e-14	6.635682e-21	0.5	0.5	0.02425165	1	5.344576	7.43262e+26	2.372858e+28	
4565	1273	1e+19	0	5e-06	3.94416e+25	2.756766e+25	2.161459e+25	5.953071e+24	8.223504e+24	3.650431e+24	4.9302e+24	3.445958e+24	2.701824e+24	7.441338e+23	1.027938e+24	4.563039e+23	0.09255282	6.12564e+23	4.731026e-10	0.0002717102	5.872559e+12	2625614	1.660766e+08	2.14903e-07	8.514177e-14	7.009728e-21	0.5	0.5	0.02469902	1	5.409754	7.43262e+26	2.372858e+28	
4620	1273	1e+19	0	5e-06	3.99168e+25	2.783375e+25	2.183306e+25	6.000689e+24	8.242267e+24	3.840788e+24	4.9896e+24	3.479218e+24	2.729132e+24	7.500861e+23	1.030283e+24	4.800985e+23	0.09621983	6.111938e+23	4.747334e-10	0.0002739157	5.661894e+12	2729520	1.755202e+08	2.188645e-07	8.830968e-14	7.404567e-21	0.5	0.5	0.02515432	1	5.474932	7.43262e+26	2.372858e+28	
4675	1273	1e+19	0	5e-06	4.0392e+25	2.809873e+25	2.205073e+25	6.047998e+24	8.261888e+24	4.031382e+24	5.049e+24	3.512341e+24	2.756342e+24	7.559997e+23	1.032736e+24	5.039227e+23	0.09980644	6.098426e+23	4.763471e-10	0.0002761067	5.459008e+12	2837702	1.854872e+08	2.228944e-07	9.159172e-14	7.821167e-21	0.5	0.5	0.02561749	1	5.540109	7.43262e+26	2.372858e+28	
4730	1273	1e+19	0	5e-06	4.08672e+25	2.836263e+25	2.226763e+25	6.095001e+24	8.282416e+24	4.222156e+24	5.1084e+24	3.545329e+24	2.783453e+24	7.618751e+23	1.035302e+24	5.277694e+23	0.103314	6.085101e+23	4.77944e-10	0.0002782835	5.263686e+12	2950315	1.960015e+08	2.269923e-07	9.499048e-14	8.260518e-21	0.5	0.5	0.02608846	1	5.605287	7.43262e+26	2.372858e+28	