1.702400000000e-02	1000000	1.702400000000e+04	100
