Time (h)	Temperature (K)	Fission rate (fiss / m3 s)	Hydrostatic stress (MPa)	Grain radius (m)	Xe produced (at/m3)	Xe in grain (at/m3)	Xe in intragranular solution (at/m3)	Xe in intragranular bubbles (at/m3)	Xe at grain boundary (at/m3)	Xe released (at/m3)	Kr produced (at/m3)	Kr in grain (at/m3)	Kr in intragranular solution (at/m3)	Kr in intragranular bubbles (at/m3)	Kr at grain boundary (at/m3)	Kr released (at/m3)	Fission gas release (/)	Intragranular bubble concentration (bub/m3)	Intragranular bubble radius (m)	Intragranular gas swelling (/)	Intergranular bubble concentration (bub/m2)	Intergranular atoms per bubble (at/bub)	Intergranular vacancies per bubble (vac/bub)	Intergranular bubble radius (m)	Intergranular bubble area (m2)	Intergranular bubble volume (m3)	Intergranular fractional coverage (/)	Intergranular saturation fractional coverage (/)	Intergranular gas swelling (/)	Intergranular fractional intactness (/)	Burnup (MWd/kgUO2)	U235 (at/m3)	U238 (at/m3)	Intergranular vented fraction (/)	Intergranular venting probability (/)	
0	1750	3e+18	0	5e-06	0	0	0	0	0	0	0	0	0	0	0	0	0	0	0	0	4e+13	0	0	0	0	0	0	0.5	0	1	0	7.209709e+26	2.301694e+28	0	0.497177	
500	1750	3e+18	0	4.337034e-05	1.296e+24	1.142781e+24	1.142781e+24	0	8.094087e+22	7.22784e+22	1.62e+23	1.428476e+23	1.428476e+23	0	1.011761e+22	9.034801e+21	0.05577037	1.319808e+24	0	0	3.776481e+13	34858.18	230611.2	2.593143e-08	1.239684e-15	1.231554e-23	0.04681642	0.5	3.217135e-05	1	0.1832535	7.209709e+26	2.301694e+28	0	0.4717318	
1000	1750	3e+18	0	4.337034e-05	2.592e+24	2.408754e+24	4.365194e+22	2.365103e+24	9.672707e+22	8.651843e+22	3.24e+23	3.010943e+23	5.456493e+21	2.956378e+23	1.209088e+22	1.08148e+22	0.03337902	1.32626e+24	0	0	3.621075e+13	43444.48	482472.3	3.208445e-08	1.897785e-15	2.332694e-23	0.06872023	0.5	5.842837e-05	1	0.3665069	7.209709e+26	2.301694e+28	0	0.474253	
1500	1750	3e+18	0	4.337034e-05	3.888e+24	3.667611e+24	6.614772e+22	3.601463e+24	1.161626e+23	1.042265e+23	4.86e+23	4.584514e+23	8.268464e+21	4.501829e+23	1.452033e+22	1.302831e+22	0.02680722	1.326291e+24	2.695666e-10	0.0001088243	3.499702e+13	53983.3	738270	3.661186e-08	2.471163e-15	3.466086e-23	0.08648334	0.5	8.390712e-05	1	0.5497604	7.209709e+26	2.301694e+28	0	0.4767456	
2000	1750	3e+18	0	4.337034e-05	5.184e+24	4.926528e+24	6.304552e+22	4.863482e+24	1.354752e+23	1.21997e+23	6.48e+23	6.15816e+23	7.88069e+21	6.079353e+23	1.693439e+22	1.524963e+22	0.02353338	8.243933e+23	3.633936e-10	0.0001657123	3.393695e+13	64924.85	1010062	4.043208e-08	3.013769e-15	4.668228e-23	0.1022781	0.5	0.0001095856	1	0.7330138	7.209709e+26	2.301694e+28	0	0.4792092	
2500	1750	3e+18	0	4.337034e-05	6.48e+24	6.17003e+24	1.216681e+23	6.048362e+24	1.626878e+23	1.472823e+23	8.1e+23	7.712537e+23	1.520851e+22	7.560452e+23	2.033597e+22	1.841029e+22	0.02272875	7.137962e+23	4.214248e-10	0.000223781	3.271019e+13	80890.2	1390494	4.481354e-08	3.702341e-15	6.356262e-23	0.1211043	0.5	0.000143818	1	0.9162673	7.209709e+26	2.301694e+28	0	0.4816432	
3000	1750	3e+18	0	4.337034e-05	7.776e+24	7.40347e+24	1.65968e+23	7.237502e+24	1.949656e+23	1.775641e+23	9.72e+23	9.254338e+23	2.0746e+22	9.046878e+23	2.43707e+22	2.219551e+22	0.02283489	6.565732e+23	4.659943e-10	0.0002783002	3.130284e+13	101297.4	1928545	4.98053e-08	4.573081e-15	8.725705e-23	0.1431504	0.5	0.0001889351	1	1.099521	7.209709e+26	2.301694e+28	0	0.484047	
3500	1750	3e+18	0	4.337034e-05	9.072e+24	8.6284e+24	2.085576e+23	8.419842e+24	2.31466e+23	2.121343e+23	1.134e+24	1.07855e+24	2.60697e+22	1.05248e+24	2.893326e+22	2.651678e+22	0.02338341	6.172166e+23	5.050249e-10	0.0003330156	2.974766e+13	126549	2675051	5.536753e-08	5.651558e-15	1.19878e-22	0.1681206	0.5	0.0002466725	1	1.282774	7.209709e+26	2.301694e+28	0	0.4864202	
4000	1750	3e+18	0	4.337034e-05	1.0368e+25	9.845535e+24	2.518815e+23	9.593654e+24	2.717846e+23	2.506803e+23	1.296e+24	1.230692e+24	3.148519e+22	1.199207e+24	3.397307e+22	3.133503e+22	0.02417826	5.856018e+23	5.405422e-10	0.000387418	2.808031e+13	157415.3	3695673	6.148618e-08	6.969679e-15	1.641748e-22	0.1957107	0.5	0.0003188869	1	1.466028	7.209709e+26	2.301694e+28	0	0.4887621	
4500	1750	3e+18	0	4.337034e-05	1.1664e+25	1.10552e+25	2.971575e+23	1.075804e+25	3.157226e+23	2.930767e+23	1.458e+24	1.3819e+24	3.714468e+22	1.344755e+24	3.946533e+22	3.663459e+22	0.02512661	5.589007e+23	5.73428e-10	0.000441428	2.633149e+13	195008.8	5080055	6.818631e-08	8.571407e-15	2.239058e-22	0.225698	0.5	0.0004078208	1	1.649281	7.209709e+26	2.301694e+28	0	0.4910722	
5000	1750	3e+18	0	4.337034e-05	1.296e+25	1.225762e+25	3.445617e+23	1.191306e+25	3.631338e+23	3.392433e+23	1.62e+24	1.532203e+24	4.307022e+22	1.489133e+24	4.539173e+22	4.240542e+22	0.02617618	5.357749e+23	6.041981e-10	0.0004950045	2.452829e+13	240781.8	6951136	7.552157e-08	1.051477e-14	3.042195e-22	0.2579094	0.5	0.000516158	1	1.832535	7.209709e+26	2.301694e+28	0	0.49335	
5500	1750	3e+18	0	4.337034e-05	1.4256e+25	1.345299e+25	3.940885e+23	1.30589e+25	4.138952e+23	3.891181e+23	1.782e+24	1.681623e+24	4.926106e+22	1.632362e+24	5.17369e+22	4.863976e+22	0.02729504	5.154133e+23	6.332157e-10	0.0005481497	2.269524e+13	296605.8	9478302	8.35688e-08	1.287497e-14	4.121984e-22	0.2922005	0.5	0.0006470973	1	2.015788	7.209709e+26	2.301694e+28	0	0.4955949	
6000	1750	3e+18	0	4.337034e-05	1.5552e+25	1.464145e+25	4.456922e+23	1.419576e+25	4.67899e+23	4.426501e+23	1.944e+24	1.830181e+24	5.571153e+22	1.77447e+24	5.848737e+22	5.533127e+22	0.02846259	4.972571e+23	6.607506e-10	0.0006008726	2.085491e+13	364895	1.28966e+07	9.24267e-08	1.574899e-14	5.576558e-22	0.3284437	0.5	0.0008044571	1	2.199041	7.209709e+26	2.301694e+28	0	0.4978065	
6500	1750	3e+18	0	4.337034e-05	1.6848e+25	1.582315e+25	4.993269e+23	1.532383e+25	5.250496e+23	4.997971e+23	2.106e+24	1.977894e+24	6.241586e+22	1.915478e+24	6.56312e+22	6.247463e+22	0.02966507	4.809017e+23	6.870102e-10	0.0006531823	1.902799e+13	448777.8	1.753503e+07	1.022174e-07	1.926226e-14	7.543067e-22	0.3665221	0.5	0.0009928174	1	2.382295	7.209709e+26	2.301694e+28	0	0.4999841	
7000	1750	3e+18	0	4.337034e-05	1.8144e+25	1.699822e+25	5.549495e+23	1.644327e+25	5.852614e+23	5.605234e+23	2.268e+24	2.124777e+24	6.936868e+22	2.055408e+24	7.315768e+22	7.006543e+22	0.03089305	4.660445e+23	7.121569e-10	0.0007050876	1.723341e+13	552335.2	2.385863e+07	1.130896e-07	2.357779e-14	1.021508e-21	0.4063258	0.5	0.001217704	1	2.565548	7.209709e+26	2.301694e+28	0	0.5021272	
7500	1750	3e+18	0	4.337034e-05	1.944e+25	1.816674e+25	6.125199e+23	1.755422e+25	6.484575e+23	6.247992e+23	2.43e+24	2.270843e+24	7.656499e+22	2.194278e+24	8.105718e+22	7.809991e+22	0.03213988	4.524532e+23	7.363211e-10	0.0007565958	1.548824e+13	680931.4	3.253163e+07	1.25224e-07	2.890898e-14	1.386872e-21	0.4477494	0.5	0.001485823	1	2.748802	7.209709e+26	2.301694e+28	0	0.5042353	
8000	1750	3e+18	0	4.337034e-05	2.0736e+25	1.932883e+25	6.720004e+23	1.865683e+25	7.145677e+23	6.925989e+23	2.592e+24	2.416104e+24	8.400005e+22	2.332104e+24	8.932097e+22	8.657486e+22	0.03340079	4.399456e+23	7.596088e-10	0.0008077137	1.38077e+13	841678.4	4.451365e+07	1.388398e-07	3.553739e-14	1.890234e-21	0.4906896	0.5	0.001805366	1	2.932055	7.209709e+26	2.301694e+28	0	0.5063078	
8500	1750	3e+18	0	4.337034e-05	2.2032e+25	2.048457e+25	7.333551e+23	1.975122e+25	7.199138e+23	8.275146e+23	2.754e+24	2.560571e+24	9.166938e+22	2.468902e+24	8.998922e+22	1.034393e+23	0.03755967	4.283761e+23	7.821078e-10	0.0008584475	1.17986e+13	992371.3	5.817581e+07	1.516146e-07	4.237792e-14	2.461482e-21	0.5	0.5	0.002008887	1	3.115309	7.209709e+26	2.301694e+28	0	0.5083443	
9000	1750	3e+18	0	4.337034e-05	2.3328e+25	2.163404e+25	7.965496e+23	2.083749e+25	7.157359e+23	9.782279e+23	2.916e+24	2.704255e+24	9.95687e+22	2.604686e+24	8.946699e+22	1.222785e+23	0.04193364	4.176267e+23	8.038918e-10	0.0009088029	1.007045e+13	1155921	7.398337e+07	1.641087e-07	4.965022e-14	3.12154e-21	0.5	0.5	0.002174434	1	3.298562	7.209709e+26	2.301694e+28	0	0.5103441	
9500	1750	3e+18	0	4.337034e-05	2.4624e+25	2.27773e+25	8.615512e+23	2.191575e+25	7.162104e+23	1.130491e+24	3.078e+24	2.847162e+24	1.076939e+23	2.739468e+24	8.95263e+22	1.413114e+23	0.04591012	4.075999e+23	8.250232e-10	0.0009587849	8.628688e+12	1349957	9.349771e+07	1.772898e-07	5.794624e-14	3.935728e-21	0.5	0.5	0.002349082	1	3.481816	7.209709e+26	2.301694e+28	0	0.5123068	
10000	1750	3e+18	0	4.337034e-05	2.592e+25	2.391443e+25	9.283283e+23	2.29861e+25	7.184938e+23	1.287081e+24	3.24e+24	2.989303e+24	1.16041e+23	2.873262e+24	8.981172e+22	1.608851e+23	0.04965589	3.982146e+23	8.455555e-10	0.001008398	7.382896e+12	1582779	1.183834e+08	1.91665e-07	6.77241e-14	4.972813e-21	0.5	0.5	0.002539553	1	3.665069	7.209709e+26	2.301694e+28	0	0.5142317	
10500	1750	3e+18	0	4.337034e-05	2.7216e+25	2.504548e+25	9.968503e+23	2.404863e+25	7.214943e+23	1.449028e+24	3.402e+24	3.130685e+24	1.246063e+23	3.006078e+24	9.018679e+22	1.811285e+23	0.05324178	3.894026e+23	8.655348e-10	0.001057648	6.295818e+12	1863824	1.50628e+08	2.075535e-07	7.94178e-14	6.314864e-21	0.5	0.5	0.002750075	1	3.848323	7.209709e+26	2.301694e+28	0	0.5161184	
11000	1750	3e+18	0	4.337034e-05	2.8512e+25	2.617051e+25	1.067088e+24	2.510342e+25	7.248092e+23	1.616679e+24	3.564e+24	3.271314e+24	1.333859e+23	3.137928e+24	9.060115e+22	2.020848e+23	0.05670169	3.811058e+23	8.850015e-10	0.001106537	5.347528e+12	2204422	1.927789e+08	2.252058e-07	9.350114e-14	8.06701e-21	0.5	0.5	0.002983968	1	4.031576	7.209709e+26	2.301694e+28	0	0.5179664	
11500	1750	3e+18	0	4.337034e-05	2.9808e+25	2.728958e+25	1.139011e+24	2.615057e+25	7.283196e+23	1.790097e+24	3.726e+24	3.411198e+24	1.423764e+23	3.268821e+24	9.103995e+22	2.237622e+23	0.06005426	3.732743e+23	9.039909e-10	0.001155071	4.523762e+12	2618462	2.481989e+08	2.448534e-07	1.105275e-13	1.036794e-20	0.5	0.5	0.003244298	1	4.214829	7.209709e+26	2.301694e+28	0	0.519775	
12000	1750	3e+18	0	4.337034e-05	3.1104e+25	2.840274e+25	1.212594e+24	2.719015e+25	7.320377e+23	1.969221e+24	3.888e+24	3.550343e+24	1.515742e+23	3.398768e+24	9.150471e+22	2.461527e+23	0.06331087	3.658652e+23	9.225341e-10	0.001203253	3.812203e+12	3123069	3.213672e+08	2.667277e-07	1.311578e-13	1.340227e-20	0.5	0.5	0.003534131	1	4.398083	7.209709e+26	2.301694e+28	0	0.5215439	
12500	1750	3e+18	0	4.337034e-05	3.24e+25	2.951003e+25	1.287807e+24	2.822223e+25	7.360555e+23	2.153911e+24	4.05e+24	3.688754e+24	1.609758e+23	3.527778e+24	9.200694e+22	2.692389e+23	0.06647874	3.58841e+23	9.40659e-10	0.001251087	3.201402e+12	3739336	4.182399e+08	2.910623e-07	1.561816e-13	1.741534e-20	0.5	0.5	0.003856564	1	4.581336	7.209709e+26	2.301694e+28	0	0.5232723	
13000	1750	3e+18	0	4.337034e-05	3.3696e+25	3.061151e+25	1.364624e+24	2.924688e+25	7.405351e+23	2.343959e+24	4.212e+24	3.826438e+24	1.70578e+23	3.65586e+24	9.256689e+22	2.929948e+23	0.06956193	3.52169e+23	9.583904e-10	0.001298575	2.680544e+12	4493108	5.46669e+08	3.180861e-07	1.865293e-13	2.273044e-20	0.5	0.5	0.004214627	1	4.76459	7.209709e+26	2.301694e+28	0	0.5249598	
13500	1750	3e+18	0	4.337034e-05	3.4992e+25	3.17072e+25	1.443019e+24	3.026418e+25	7.457179e+23	2.539079e+24	4.374e+24	3.9634e+24	1.803774e+23	3.783023e+24	9.321473e+22	3.173849e+23	0.07256171	3.458204e+23	9.757504e-10	0.001345722	2.239445e+12	5415744	7.168399e+08	3.480053e-07	2.232696e-13	2.976675e-20	0.5	0.5	0.004611056	1	4.947843	7.209709e+26	2.301694e+28	0	0.5266059	
14000	1750	3e+18	0	4.337034e-05	3.6288e+25	3.279716e+25	1.522966e+24	3.12742e+25	7.519399e+23	2.738895e+24	4.536e+24	4.099646e+24	1.903707e+23	3.909275e+24	9.399248e+22	3.423619e+23	0.07547661	3.397695e+23	9.927592e-10	0.001392531	1.868595e+12	6544736	9.416374e+08	3.809768e-07	2.675808e-13	3.905437e-20	0.5	0.5	0.005047927	1	5.131097	7.209709e+26	2.301694e+28	0	0.52821	
14500	1750	3e+18	0	4.337034e-05	3.7584e+25	3.388143e+25	1.604439e+24	3.227699e+25	7.596442e+23	2.942923e+24	4.698e+24	4.235179e+24	2.005549e+23	4.034624e+24	9.495553e+22	3.678654e+23	0.07830256	3.339939e+23	1.009435e-09	0.001439004	1.559156e+12	7924005	1.236781e+09	4.170723e-07	3.206863e-13	5.123985e-20	0.5	0.5	0.00552619	1	5.31435	7.209709e+26	2.301694e+28	0	0.5297716	
15000	1750	3e+18	0	4.337034e-05	3.888e+25	3.496004e+25	1.687414e+24	3.327263e+25	7.693774e+23	3.150579e+24	4.86e+24	4.370005e+24	2.109267e+23	4.159079e+24	9.617218e+22	3.938223e+23	0.0810334	3.284732e+23	1.025794e-09	0.001485145	1.302945e+12	9603677	1.620524e+09	4.562397e-07	3.837461e-13	6.707385e-20	0.5	0.5	0.006045158	1	5.497604	7.209709e+26	2.301694e+28	0	0.5312902	
15500	1750	3e+18	0	4.337034e-05	4.0176e+25	3.603304e+25	1.771864e+24	3.426117e+25	7.817576e+23	3.361206e+24	5.022e+24	4.50413e+24	2.21483e+23	4.282647e+24	9.77197e+22	4.201507e+23	0.08366204	3.231892e+23	1.041852e-09	0.001530957	1.092375e+12	1.163923e+07	2.112754e+09	4.982763e-07	4.577183e-13	8.737447e-20	0.5	0.5	0.00660214	1	5.680857	7.209709e+26	2.301694e+28	0	0.5327651	
16000	1750	3e+18	0	4.337034e-05	4.1472e+25	3.710045e+25	1.857767e+24	3.524268e+25	7.974104e+23	3.574143e+24	5.184e+24	4.637556e+24	2.322209e+23	4.405335e+24	9.96763e+22	4.467679e+23	0.08618208	3.181257e+23	1.057621e-09	0.001576442	9.204297e+11	1.409014e+07	2.733561e+09	5.428262e-07	5.432245e-13	1.129682e-19	0.5	0.5	0.007192425	1	5.864111	7.209709e+26	2.301694e+28	0	0.534196	
16500	1750	3e+18	0	4.337034e-05	4.2768e+25	3.816231e+25	1.945097e+24	3.621721e+25	8.168869e+23	3.788805e+24	5.346e+24	4.770289e+24	2.431372e+23	4.527151e+24	1.021109e+23	4.736006e+23	0.08858971	3.132678e+23	1.073116e-09	0.001621604	7.80676e+11	1.701826e+07	3.501583e+09	5.894143e-07	6.404706e-13	1.446225e-19	0.5	0.5	0.007809716	1	6.047364	7.209709e+26	2.301694e+28	0	0.5355823	
17000	1750	3e+18	0	4.337034e-05	4.4064e+25	3.921866e+25	2.033832e+24	3.718483e+25	8.405912e+23	4.004752e+24	5.508e+24	4.902332e+24	2.542289e+23	4.648103e+24	1.050739e+23	5.00594e+23	0.09088489	3.086022e+23	1.088348e-09	0.001666444	6.673322e+11	2.048646e+07	4.432666e+09	6.375071e-07	7.49252e-13	1.829907e-19	0.5	0.5	0.008446943	1	6.230617	7.209709e+26	2.301694e+28	0	0.5369233	
17500	1750	3e+18	0	4.337034e-05	4.536e+25	4.026952e+25	2.123946e+24	3.814558e+25	8.687458e+23	4.221729e+24	5.67e+24	5.033691e+24	2.654932e+23	4.768197e+24	1.085932e+23	5.277162e+23	0.09307164	3.041168e+23	1.103327e-09	0.001710967	5.753492e+11	2.455757e+07	5.539171e+09	6.865787e-07	8.690375e-13	2.285835e-19	0.5	0.5	0.00909714	1	6.413871	7.209709e+26	2.301694e+28	0	0.5382187	
18000	1750	3e+18	0	4.337034e-05	4.6656e+25	4.131494e+25	2.215417e+24	3.909953e+25	9.013995e+23	4.439656e+24	5.832e+24	5.164368e+24	2.769271e+23	4.887441e+24	1.126749e+23	5.54957e+23	0.09515724	2.998005e+23	1.118063e-09	0.001755173	5.004556e+11	2.929381e+07	6.82998e+09	7.361619e-07	9.990897e-13	2.817694e-19	0.5	0.5	0.009754115	1	6.597124	7.209709e+26	2.301694e+28	0	0.5394679	
18500	1750	3e+18	0	4.337034e-05	4.7952e+25	4.235495e+25	2.308222e+24	4.004673e+25	9.384652e+23	4.658587e+24	5.994e+24	5.294368e+24	2.885277e+23	5.005841e+24	1.173081e+23	5.823234e+23	0.09715105	2.956431e+23	1.132566e-09	0.001799067	4.391438e+11	3.475646e+07	8.310953e+09	7.858736e-07	1.138579e-12	3.427931e-19	0.5	0.5	0.01041279	1	6.780378	7.209709e+26	2.301694e+28	0	0.5406702	
19000	1750	3e+18	0	4.337034e-05	4.9248e+25	4.338957e+25	2.402337e+24	4.098723e+25	9.797665e+23	4.878668e+24	6.156e+24	5.423696e+24	3.002921e+23	5.123404e+24	1.224708e+23	6.098335e+23	0.09906327	2.916354e+23	1.146845e-09	0.00184265	3.886e+11	4.100567e+07	9.985563e+09	8.354197e-07	1.28667e-12	4.118016e-19	0.5	0.5	0.01106928	1	6.963631	7.209709e+26	2.301694e+28	0	0.5418253	
19500	1750	3e+18	0	4.337034e-05	5.0544e+25	4.441883e+25	2.49774e+24	4.192109e+25	1.02508e+24	5.100092e+24	6.318e+24	5.552354e+24	3.122174e+23	5.240136e+24	1.28135e+23	6.375115e+23	0.100904	2.877688e+23	1.160907e-09	0.001885925	3.466032e+11	4.810045e+07	1.185552e+10	8.845854e-07	1.442572e-12	4.888699e-19	0.5	0.5	0.01172072	1	7.146885	7.209709e+26	2.301694e+28	0	0.5429326	
20000	1750	3e+18	0	4.337034e-05	5.184e+25	4.544277e+25	2.594408e+24	4.284836e+25	1.074165e+24	5.323069e+24	6.48e+24	5.680346e+24	3.24301e+23	5.356045e+24	1.342706e+23	6.653837e+23	0.1026827	2.840356e+23	1.17476e-09	0.001928894	3.114171e+11	5.609866e+07	1.39213e+10	9.332217e-07	1.605564e-12	5.740219e-19	0.5	0.5	0.01236515	1	7.330138	7.209709e+26	2.301694e+28	0	0.5439915	
20500	1750	3e+18	0	4.337034e-05	5.3136e+25	4.646141e+25	2.692319e+24	4.376909e+25	1.126784e+24	5.547808e+24	6.642e+24	5.807676e+24	3.365398e+23	5.471136e+24	1.40848e+23	6.93476e+23	0.1044077	2.804285e+23	1.18841e-09	0.00197156	2.816893e+11	6.505705e+07	1.618252e+10	9.812302e-07	1.775005e-12	6.672469e-19	0.5	0.5	0.01300126	1	7.513392	7.209709e+26	2.301694e+28	0	0.5450016	
21000	1750	3e+18	0	4.337034e-05	5.4432e+25	4.747478e+25	2.79145e+24	4.468333e+25	1.182715e+24	5.774502e+24	6.804e+24	5.934348e+24	3.489313e+23	5.585417e+24	1.478394e+23	7.218128e+23	0.1060865	2.769408e+23	1.201866e-09	0.002013925	2.563665e+11	7.503138e+07	1.863826e+10	1.02855e-06	1.950333e-12	7.685116e-19	0.5	0.5	0.01362825	1	7.696645	7.209709e+26	2.301694e+28	0	0.5459622	
21500	1750	3e+18	0	4.337034e-05	5.5728e+25	4.848292e+25	2.891781e+24	4.559114e+25	1.241754e+24	6.003327e+24	6.966e+24	6.060365e+24	3.614726e+23	5.698892e+24	1.552192e+23	7.504159e+23	0.1077255	2.735664e+23	1.215132e-09	0.002055992	2.346253e+11	8.60765e+07	2.128723e+10	1.075149e-06	2.131057e-12	8.777681e-19	0.5	0.5	0.01424568	1	7.879899	7.209709e+26	2.301694e+28	0	0.546873	
22000	1750	3e+18	0	4.337034e-05	5.7024e+25	4.948585e+25	2.993288e+24	4.649256e+25	1.303718e+24	6.234436e+24	7.128e+24	6.185731e+24	3.74161e+23	5.81157e+24	1.629647e+23	7.793045e+23	0.10933	2.702994e+23	1.228214e-09	0.002097762	2.158196e+11	9.824644e+07	2.412795e+10	1.121013e-06	2.316749e-12	9.949604e-19	0.5	0.5	0.01485338	1	8.063152	7.209709e+26	2.301694e+28	0	0.5477333	
22500	1750	3e+18	0	4.337034e-05	5.832e+25	5.048359e+25	3.095951e+24	4.738764e+25	1.368447e+24	6.467963e+24	7.29e+24	6.310449e+24	3.869938e+23	5.923455e+24	1.710558e+23	8.084954e+23	0.1109047	2.671345e+23	1.241119e-09	0.002139239	1.994385e+11	1.115946e+08	2.715884e+10	1.166143e-06	2.507039e-12	1.120028e-18	0.5	0.5	0.01545134	1	8.246405	7.209709e+26	2.301694e+28	0	0.5485426	
23000	1750	3e+18	0	4.337034e-05	5.9616e+25	5.147618e+25	3.199747e+24	4.827643e+25	1.435798e+24	6.704023e+24	7.452e+24	6.434522e+24	3.999684e+23	6.034554e+24	1.794748e+23	8.380029e+23	0.1124534	2.640668e+23	1.253852e-09	0.002180424	1.850753e+11	1.261737e+08	3.037827e+10	1.210548e-06	2.701603e-12	1.252909e-18	0.5	0.5	0.01603971	1	8.429659	7.209709e+26	2.301694e+28	0	0.5493005	
23500	1750	3e+18	0	4.337034e-05	6.0912e+25	5.246364e+25	3.304656e+24	4.915898e+25	1.505648e+24	6.942712e+24	7.614e+24	6.557955e+24	4.130821e+23	6.144873e+24	1.88206e+23	8.678391e+23	0.1139794	2.610917e+23	1.266416e-09	0.002221319	1.724043e+11	1.420363e+08	3.378464e+10	1.254244e-06	2.900159e-12	1.393541e-18	0.5	0.5	0.01661868	1	8.612912	7.209709e+26	2.301694e+28	0	0.5500064	
24000	1750	3e+18	0	4.337034e-05	6.2208e+25	5.3446e+25	3.410657e+24	5.003534e+25	1.577888e+24	7.184113e+24	7.776e+24	6.68075e+24	4.263321e+23	6.254418e+24	1.972361e+23	8.980141e+23	0.1154853	2.582047e+23	1.278818e-09	0.002261928	1.611624e+11	1.592343e+08	3.737637e+10	1.297252e-06	3.10246e-12	1.541866e-18	0.5	0.5	0.01718853	1	8.796166	7.209709e+26	2.301694e+28	0	0.5506597	
24500	1750	3e+18	0	4.337034e-05	6.3504e+25	5.442328e+25	3.517728e+24	5.090556e+25	1.652425e+24	7.428292e+24	7.938e+24	6.80291e+24	4.39716e+23	6.363194e+24	2.065531e+23	9.285365e+23	0.1169736	2.55402e+23	1.291061e-09	0.002302251	1.511354e+11	1.778195e+08	4.115196e+10	1.339593e-06	3.308291e-12	1.697825e-18	0.5	0.5	0.01774956	1	8.979419	7.209709e+26	2.301694e+28	0	0.5512601	
25000	1750	3e+18	0	4.337034e-05	6.48e+25	5.539552e+25	3.62585e+24	5.176967e+25	1.729174e+24	7.675306e+24	8.1e+24	6.92444e+24	4.532312e+23	6.471209e+24	2.161468e+23	9.594132e+23	0.1184461	2.526796e+23	1.303149e-09	0.002342292	1.42148e+11	1.978437e+08	4.510996e+10	1.381293e-06	3.517461e-12	1.861363e-18	0.5	0.5	0.01830207	1	9.162673	7.209709e+26	2.301694e+28	0	0.5518069	
25500	1750	3e+18	0	4.337034e-05	6.6096e+25	5.636273e+25	3.735e+24	5.262773e+25	1.808066e+24	7.9252e+24	8.262e+24	7.045342e+24	4.66875e+23	6.578467e+24	2.260082e+23	9.9065e+23	0.1199044	2.50034e+23	1.315087e-09	0.002382052	1.340554e+11	2.193583e+08	4.924902e+10	1.422374e-06	3.729801e-12	2.032431e-18	0.5	0.5	0.0188464	1	9.345926	7.209709e+26	2.301694e+28	0	0.5522997	
26000	1750	3e+18	0	4.337034e-05	6.7392e+25	5.732495e+25	3.845159e+24	5.347979e+25	1.889038e+24	8.178011e+24	8.424e+24	7.165619e+24	4.806449e+23	6.684974e+24	2.361297e+23	1.022251e+24	0.1213499	2.474619e+23	1.326879e-09	0.002421534	1.267375e+11	2.424151e+08	5.356787e+10	1.462863e-06	3.945163e-12	2.210979e-18	0.5	0.5	0.01938287	1	9.52918	7.209709e+26	2.301694e+28	0	0.552738	
26500	1750	3e+18	0	4.337034e-05	6.8688e+25	5.82822e+25	3.956308e+24	5.432589e+25	1.972035e+24	8.433768e+24	8.586e+24	7.285275e+24	4.945385e+23	6.790736e+24	2.465044e+23	1.054221e+24	0.1227837	2.449602e+23	1.338527e-09	0.002460739	1.200937e+11	2.670658e+08	5.806534e+10	1.502782e-06	4.163414e-12	2.396965e-18	0.5	0.5	0.0199118	1	9.712433	7.209709e+26	2.301694e+28	0	0.5531212	
27000	1750	3e+18	0	4.337034e-05	6.9984e+25	5.92345e+25	4.068425e+24	5.516607e+25	2.057011e+24	8.692491e+24	8.748e+24	7.404312e+24	5.085531e+23	6.895759e+24	2.571264e+23	1.086561e+24	0.1242068	2.425258e+23	1.350036e-09	0.00249967	1.140397e+11	2.933625e+08	6.274032e+10	1.542155e-06	4.384436e-12	2.590347e-18	0.5	0.5	0.02043349	1	9.895686	7.209709e+26	2.301694e+28	0	0.5534489	
27500	1750	3e+18	0	4.337034e-05	7.128e+25	6.018188e+25	4.181491e+24	5.600039e+25	2.143926e+24	8.954196e+24	8.91e+24	7.522735e+24	5.226863e+23	7.000048e+24	2.679908e+23	1.119275e+24	0.12562	2.401561e+23	1.361409e-09	0.002538329	1.08504e+11	3.213572e+08	6.759179e+10	1.581005e-06	4.608124e-12	2.791088e-18	0.5	0.5	0.02094825	1	10.07894	7.209709e+26	2.301694e+28	0	0.5537206	
28000	1750	3e+18	0	4.337034e-05	7.2576e+25	6.112436e+25	4.295486e+24	5.682888e+25	2.232745e+24	9.218893e+24	9.072e+24	7.640545e+24	5.369357e+23	7.10361e+24	2.790931e+23	1.152362e+24	0.127024	2.378484e+23	1.372648e-09	0.002576718	1.034258e+11	3.511027e+08	7.261884e+10	1.619353e-06	4.834384e-12	2.999155e-18	0.5	0.5	0.02145637	1	10.26219	7.209709e+26	2.301694e+28	0	0.5539358	
28500	1750	3e+18	0	4.337034e-05	7.3872e+25	6.206198e+25	4.41039e+24	5.765159e+25	2.323437e+24	9.486587e+24	9.234e+24	7.757747e+24	5.512988e+23	7.206448e+24	2.904296e+23	1.185823e+24	0.1284193	2.356002e+23	1.383758e-09	0.002614839	9.875316e+10	3.82652e+08	7.782061e+10	1.657222e-06	5.063129e-12	3.214517e-18	0.5	0.5	0.02195812	1	10.44545	7.209709e+26	2.301694e+28	0	0.5540941	
29000	1750	3e+18	0	4.337034e-05	7.5168e+25	6.299474e+25	4.526185e+24	5.846856e+25	2.415977e+24	9.757279e+24	9.396e+24	7.874343e+24	5.657732e+23	7.30857e+24	3.019971e+23	1.21966e+24	0.1298063	2.334092e+23	1.394741e-09	0.002652694	9.444146e+10	4.160583e+08	8.319634e+10	1.694629e-06	5.294285e-12	3.437148e-18	0.5	0.5	0.02245377	1	10.6287	7.209709e+26	2.301694e+28	0	0.5541949	
29500	1750	3e+18	0	4.337034e-05	7.6464e+25	6.392269e+25	4.642851e+24	5.927984e+25	2.510344e+24	1.003097e+25	9.558e+24	7.990336e+24	5.803564e+23	7.40998e+24	3.13793e+23	1.253871e+24	0.1311855	2.312732e+23	1.405599e-09	0.002690285	9.045219e+10	4.513758e+08	8.874533e+10	1.731596e-06	5.527782e-12	3.667023e-18	0.5	0.5	0.02294358	1	10.81195	7.209709e+26	2.301694e+28	0	0.5542378	
30000	1750	3e+18	0	4.337034e-05	7.776e+25	6.484584e+25	4.76037e+24	6.008547e+25	2.60652e+24	1.030764e+25	9.72e+24	8.10573e+24	5.950462e+23	7.510684e+24	3.258151e+23	1.288455e+24	0.1325571	2.291901e+23	1.416336e-09	0.002727614	8.675195e+10	4.886591e+08	9.446695e+10	1.768139e-06	5.763559e-12	3.904121e-18	0.5	0.5	0.02342777	1	10.99521	7.209709e+26	2.301694e+28	0	0.5542223	
30500	1750	3e+18	0	4.337034e-05	7.9056e+25	6.576421e+25	4.878722e+24	6.088549e+25	2.704491e+24	1.058729e+25	9.882e+24	8.220527e+24	6.098402e+23	7.610687e+24	3.380614e+23	1.323412e+24	0.1339215	2.271578e+23	1.426953e-09	0.002764683	8.331168e+10	5.279633e+08	1.003607e+11	1.804277e-06	6.001559e-12	4.148426e-18	0.5	0.5	0.02390659	1	11.17846	7.209709e+26	2.301694e+28	0	0.5541481	
31000	1750	3e+18	0	4.337034e-05	8.0352e+25	6.667784e+25	4.997888e+24	6.167995e+25	2.804245e+24	1.086991e+25	1.0044e+25	8.33473e+24	6.247361e+23	7.709994e+24	3.505306e+23	1.358739e+24	0.1352787	2.251746e+23	1.437454e-09	0.002801494	8.010597e+10	5.693445e+08	1.06426e+11	1.840025e-06	6.241732e-12	4.399921e-18	0.5	0.5	0.02438025	1	11.36171	7.209709e+26	2.301694e+28	0	0.5540145	
31500	1750	3e+18	0	4.337034e-05	8.1648e+25	6.758674e+25	5.117851e+24	6.246889e+25	2.905772e+24	1.115548e+25	1.0206e+25	8.448343e+24	6.397314e+23	7.808611e+24	3.632215e+23	1.394436e+24	0.136629	2.232386e+23	1.44784e-09	0.002838049	7.711252e+10	6.128593e+08	1.126625e+11	1.875399e-06	6.484032e-12	4.658594e-18	0.5	0.5	0.02484896	1	11.54497	7.209709e+26	2.301694e+28	0	0.5538213	
32000	1750	3e+18	0	4.337034e-05	8.2944e+25	6.849094e+25	5.238593e+24	6.325235e+25	3.009067e+24	1.144399e+25	1.0368e+25	8.561368e+24	6.548241e+23	7.906544e+24	3.761334e+23	1.430499e+24	0.1379725	2.213481e+23	1.458115e-09	0.00287435	7.431169e+10	6.585653e+08	1.190699e+11	1.910414e-06	6.728416e-12	4.924436e-18	0.5	0.5	0.02531291	1	11.72822	7.209709e+26	2.301694e+28	0	0.5535679	
32500	1750	3e+18	0	4.337034e-05	8.424e+25	6.939047e+25	5.360094e+24	6.403037e+25	3.114126e+24	1.173541e+25	1.053e+25	8.673808e+24	6.700117e+23	8.003797e+24	3.892657e+23	1.466926e+24	0.1393092	2.195015e+23	1.46828e-09	0.002910399	7.168614e+10	7.06521e+08	1.256478e+11	1.945085e-06	6.974849e-12	5.197439e-18	0.5	0.5	0.02577229	1	11.91147	7.209709e+26	2.301694e+28	0	0.5532541	
33000	1750	3e+18	0	4.337034e-05	8.5536e+25	7.028534e+25	5.482337e+24	6.4803e+25	3.220946e+24	1.202972e+25	1.0692e+25	8.785667e+24	6.852921e+23	8.100375e+24	4.026182e+23	1.503715e+24	0.1406392	2.176973e+23	1.478337e-09	0.002946198	6.922048e+10	7.567857e+08	1.32396e+11	1.979424e-06	7.223295e-12	5.477599e-18	0.5	0.5	0.02622728	1	12.09473	7.209709e+26	2.301694e+28	0	0.5528792	
33500	1750	3e+18	0	4.337034e-05	8.6832e+25	7.117557e+25	5.605304e+24	6.557027e+25	3.329528e+24	1.23269e+25	1.0854e+25	8.896947e+24	7.00663e+23	8.196284e+24	4.16191e+23	1.540862e+24	0.1419626	2.15934e+23	1.488288e-09	0.002981748	6.690105e+10	8.094198e+08	1.393143e+11	2.013444e-06	7.473724e-12	5.764914e-18	0.5	0.5	0.02667806	1	12.27798	7.209709e+26	2.301694e+28	0	0.5524431	
34000	1750	3e+18	0	4.337034e-05	8.8128e+25	7.206121e+25	5.728979e+24	6.633223e+25	3.439873e+24	1.262692e+25	1.1016e+25	9.007651e+24	7.161223e+23	8.291528e+24	4.299841e+23	1.578365e+24	0.1432793	2.142102e+23	1.498136e-09	0.003017052	6.471563e+10	8.644847e+08	1.464027e+11	2.047159e-06	7.726109e-12	6.059383e-18	0.5	0.5	0.02712477	1	12.46123	7.209709e+26	2.301694e+28	0	0.5519452	
34500	1750	3e+18	0	4.337034e-05	8.9424e+25	7.294225e+25	5.853342e+24	6.708891e+25	3.551986e+24	1.292976e+25	1.1178e+25	9.117782e+24	7.316678e+23	8.386114e+24	4.439982e+23	1.61622e+24	0.1445894	2.125247e+23	1.507882e-09	0.003052112	6.265332e+10	9.22043e+08	1.53661e+11	2.080578e-06	7.980423e-12	6.361009e-18	0.5	0.5	0.02756758	1	12.64449	7.209709e+26	2.301694e+28	0	0.5513852	
35000	1750	3e+18	0	4.337034e-05	9.072e+25	7.381874e+25	5.978378e+24	6.784036e+25	3.665871e+24	1.323539e+25	1.134e+25	9.227342e+24	7.472973e+23	8.480045e+24	4.582338e+23	1.654424e+24	0.1458928	2.10876e+23	1.517529e-09	0.003086929	6.070434e+10	9.821583e+08	1.610893e+11	2.113714e-06	8.236644e-12	6.669797e-18	0.5	0.5	0.02800662	1	12.82774	7.209709e+26	2.301694e+28	0	0.5507628	
35500	1750	3e+18	0	4.337034e-05	9.2016e+25	7.469069e+25	6.104069e+24	6.858662e+25	3.781535e+24	1.354378e+25	1.1502e+25	9.336336e+24	7.630087e+23	8.573327e+24	4.726918e+23	1.692972e+24	0.1471894	2.092631e+23	1.527077e-09	0.003121505	5.885987e+10	1.044896e+09	1.686875e+11	2.146577e-06	8.494752e-12	6.985753e-18	0.5	0.5	0.02844206	1	13.011	7.209709e+26	2.301694e+28	0	0.5500775	
36000	1750	3e+18	0	4.337034e-05	9.3312e+25	7.555812e+25	6.230399e+24	6.932772e+25	3.898986e+24	1.385489e+25	1.1664e+25	9.444765e+24	7.787999e+23	8.665965e+24	4.873733e+23	1.731862e+24	0.1484792	2.076847e+23	1.536529e-09	0.003155842	5.711199e+10	1.110321e+09	1.764557e+11	2.179177e-06	8.754729e-12	7.308887e-18	0.5	0.5	0.028874	1	13.19425	7.209709e+26	2.301694e+28	0	0.5493291	
36500	1750	3e+18	0	4.337034e-05	9.4608e+25	7.642106e+25	6.35735e+24	7.006371e+25	4.018235e+24	1.41687e+25	1.1826e+25	9.552633e+24	7.946688e+23	8.757964e+24	5.022794e+23	1.771088e+24	0.1497622	2.061398e+23	1.545886e-09	0.003189942	5.545353e+10	1.178502e+09	1.843941e+11	2.211523e-06	9.016558e-12	7.639209e-18	0.5	0.5	0.02930259	1	13.3775	7.209709e+26	2.301694e+28	0	0.5485173	
37000	1750	3e+18	0	4.337034e-05	9.5904e+25	7.727953e+25	6.484907e+24	7.079462e+25	4.139292e+24	1.448518e+25	1.1988e+25	9.659941e+24	8.106134e+23	8.849328e+24	5.174115e+23	1.810647e+24	0.1510383	2.046272e+23	1.55515e-09	0.003223806	5.3878e+10	1.249507e+09	1.925029e+11	2.243625e-06	9.280226e-12	7.976732e-18	0.5	0.5	0.02972795	1	13.56076	7.209709e+26	2.301694e+28	0	0.5476417	
37500	1750	3e+18	0	4.337034e-05	9.72e+25	7.813355e+25	6.613053e+24	7.15205e+25	4.262169e+24	1.480428e+25	1.215e+25	9.766694e+24	8.266316e+23	8.940063e+24	5.327711e+23	1.850535e+24	0.1523074	2.031461e+23	1.564323e-09	0.003257438	5.237951e+10	1.323407e+09	2.007823e+11	2.275492e-06	9.545718e-12	8.321471e-18	0.5	0.5	0.03015018	1	13.74401	7.209709e+26	2.301694e+28	0	0.5467021	
38000	1750	3e+18	0	4.337034e-05	9.8496e+25	7.898315e+25	6.741771e+24	7.224138e+25	4.38688e+24	1.512597e+25	1.2312e+25	9.872894e+24	8.427214e+23	9.030173e+24	5.4836e+23	1.890746e+24	0.1535694	2.016953e+23	1.573405e-09	0.003290837	5.095269e+10	1.400273e+09	2.092325e+11	2.307133e-06	9.813024e-12	8.673443e-18	0.5	0.5	0.03056941	1	13.92726	7.209709e+26	2.301694e+28	0	0.5456982	
38500	1750	3e+18	0	4.337034e-05	9.9792e+25	7.982835e+25	6.871047e+24	7.29573e+25	4.513439e+24	1.545021e+25	1.2474e+25	9.978544e+24	8.588809e+23	9.119663e+24	5.641798e+23	1.931277e+24	0.1548242	2.002741e+23	1.5824e-09	0.003324007	4.959267e+10	1.480179e+09	2.178539e+11	2.338554e-06	1.008214e-11	9.032666e-18	0.5	0.5	0.03098574	1	14.11052	7.209709e+26	2.301694e+28	0	0.5446297	