Use ./sciantix.x ../input_path/ in the working directory
OpenCalphad attempt for 'matrix' with WARM-START

[OC input] ./OCinput_matrix.OCM
----------------------------------------
@$ Initialize variables:
r t /home/ecappellari/transparant/opencalphad/data/O-Pu-UPaper o pu u

set ref o gas * 100000

set c t=1853
set c p=200000
set c n(o)=0.663866
set c n(pu)=0.0963509
set c n(u)=0.239784
c e
c w

save u ./OCoutput_matrix Y

l /out=./OCoutput_matrix.DAT r 1

fin
----------------------------------------

3A unfished preparations for XTDB


Open Calphad (OC) software version   6.106 , linked 2026-04-16
with command line monitor version  73

This program is available with a GNU General Public License.
either version 2 of the License, or any later version.
It includes the General Thermodynamic Package, version GTP-3.31,
Hillert's equilibrium calculation algorithm version HMS-3.0 ,
step/map/plot software version SMP-2.30 using GNUPLOT 5.2 graphics.
Numerical routines are extracted from LAPACK and BLAS and
the assessment procedure uses LMDIF from ANL.

Linked with OpenMp for parallel execution
 Warning, no environment variable OCHOME and no help file
 Working directory is: /home/ecappellari/transparant/sciantix-official/regression/test_JOG_MOX/point_01_r_0p4mm
--->OC6:--->OC6: 3E Database file extention is: ".tdb"

This database has information to users, please read carefully
Database modified by Pauline Fouquet-Metivier et al, Calphad (2022)
Only for the liquid phase of Pu-O and U-Pu-O systems

 ELEMENT /-   ELECTRON_GAS              0.0000E+00  0.0000E+00  0.0000E+00!

Database has  5 elements: O  PU U  AR N 
Give the elements to select, finish with empty line
Selected  3 elements: O  PU U 
Select elements /no more/:Selected  3 elements: O  PU U 
3E reading database file: /home/ecappellari/transparant/opencalphad/data/O-Pu-UPaper.TDB
 3B insering interaction before existing F

Out of   115 model parameters   108 have been entered


There are    17 bibliographic references
REF161          '*** Not set by database or user'
REF178          '*** Not set by database or user'
REF175          '*** Not set by database or user'
REF176          '*** Not set by database or user'
REF177          '*** Not set by database or user'
REF203          'O1PU1<G> T.C.R.A.S. Class: 6, from SSUB, id to Tbase'
REF204          'O2PU1<G> T.C.R.A.S. Class: 7 PLUTONIUM DIOXIDE <GAS>, from 
                 SSUB, id to Tbase'
REF209          'O1U1<G> T.C.R.A.S Class: 6 Data provided by T.C.R.A.S. in 
                 2000, from SSUB, different of Tbase'
REF210          'O2U1<G> T.C.R.A.S. Class: 6 URANIUM DIOXIDE <GAS>, from 
                 SSUB, slightly different of Tbase'
REF211          'O3U1<G> T.C.R.A.S Class: 6 Data provided by T.C.R.A.S. in 
                 2000, from SSUB, different of Tbase'
REF10           'A T Dinsdale, SGTE Data for Pure Elements, Calphad 15(1991)4 
                 p 317-425; also in NPL Report DMA(A)195 Rev. August 1990'
FOUQ            'P. Fouquet-Metivier et al, Calphad (2022)'
REF412          'C. Gueneau, N. Dupin, B. Sundman, C. Martial, J.-C. Dumas, 
                 S. Gosse, S. Chatain, F. De Bruycker, D. Manara, R.J.M. 
                 Konings, J. Nucl. Mat. 419 (1-3), 145-167 (2011); C-O-Pu-U'
REF37           'M. Kurata, Calphad, 23 (3-4), 305-337 1999'
REF115          '*** Not set by database or user'
REF92           'N. Dupin, Contrat CEA 4000294936/P5B73 Np-Pu Fuelbase, 
                 february REF115'
REF137          '*** Not set by database or user'

--->OC6:--->OC6:--->OC6:--->OC6:--->OC6:--->OC6:--->OC6:--->OC6:3Y Removed  1 gridpoints by merging
 3Y Composition set(s) created:            1
Gridmin:    7483 points   1.65E-02 s and      14 clockcycles, T= 1853.00
 3Y leaving global_gridmin
Phase change iteration:     4  -C1_MO2_AUTO#2
Equilibrium result:  17 its,  1.8138E-02 s,     18 cc, GS= -4.5951946E+05 J/mol
--->OC6:Equilibrium result:  11 its,  8.1300E-04 s,      1 cc, GS= -4.5951946E+05 J/mol
3Y Testing if any gridpoint is below the calculated equilibrium
--->OC6:--->OC6:3E allocating workspace:     122160          (   2160,   10000,    2)
 3E saving            3  symbols as texts
 3E used        12117  words out of       122160  for storing static data
 ceqrecsize not implemented          26
 3E Saving an equilibrium record requires     2854       0 words
 3E not storing unused equilibria from:            2
 3E Saving assessment record
 3E No experimental equilibrium range set
 3E allocating assessment head record          48
 3E no coefficients allocated
 3E no work array (assrec%wopt) allocated
Used    15059 words out of   122160,  12.33% for unformatted memory save
Written workspace      60236 bytes unformatted on ./OCoutput_matrix.OCU
--->OC6:--->OC6:Output on file: ./OCoutput_matrix.DAT
Output unit reset to screen:    6
--->OC6:--->OC6:
[OC output] ./OCoutput_matrix.DAT
----------------------------------------

%%%%%%%%%% OC output written: 2026-04-19  21h32

Output for equilibrium:   1, DEFAULT_EQUILIBRIUM          2026.04.19
Conditions .................................................:
  1:T=1853, 2:P=200000, 3:N(O)=0.663866, 4:N(PU)=.0963509, 5:N(U)=0.239784
 Degrees of freedom are   0

Some global data, reference state SER ......................:
T=   1853.00 K (  1579.85 C), P=  2.0000E+05 Pa, V=  0.0000E+00 m3
N=   1.0000E+00 moles, B=   9.1212E+01 g, RT=   1.5407E+04 J/mol
G= -4.59519E+05 J, G/N=-4.5952E+05 J/mol, H=-3.1508E+05 J, S= 7.795E+01 J/K

Some data for components ...................................:
Component name    Moles      Mole-fr  Chem.pot/RT  Activities  Ref.state
O                 6.6387E-01  0.66387 -1.3810E+01  1.0054E-06  GAS             
PU                9.6351E-02  0.09635 -3.3926E+01  1.8458E-15  SER (default)   
U                 2.3978E-01  0.23978 -3.4033E+01  1.6588E-15  SER (default)   

Some data for phases .......................................:
Name                Status Moles      Volume    Form.Units Cmp/FU dGm/RT  Comp:
C1_MO2#1................ E  1.000E+00  0.00E+00  3.36E-01    2.97  0.00E+00  X:
 O      6.63865E-01  U      2.39784E-01  PU     9.63508E-02


----------------------------------------

[OC parser] Parsed components
  O : moles=0.66387, x=0.66387, mu/RT=-13.81, activity=1.0054e-06, ref=GAS
  Pu : moles=0.096351, x=0.09635, mu/RT=-33.926, activity=1.8458e-15, ref=SER (default)
  U : moles=0.23978, x=0.23978, mu/RT=-34.033, activity=1.6588e-15, ref=SER (default)

[OC parser] Parsed phases
  Phase condensed : moles=1, volume=0
    Elements
      O = 0.663865
      Pu = 0.0963508
      U = 0.239784
    Species
      C1_MO2 : moles=1, volume=0
        O = 0.663865
        Pu = 0.0963508
        U = 0.239784
OpenCalphad attempt for 'matrix' with WARM-START

[OC input] ./OCinput_matrix.OCM
----------------------------------------
r u ./OCoutput_matrix.OCU

set ref o gas * 100000

set c t=1853
set c p=268000
set c n(o)=0.664146
set c n(pu)=0.0959685
set c n(u)=0.239885
c e
c w

save u ./OCoutput_matrix Y

l /out=./OCoutput_matrix.DAT r 1

fin
----------------------------------------

3A unfished preparations for XTDB


Open Calphad (OC) software version   6.106 , linked 2026-04-16
with command line monitor version  73

This program is available with a GNU General Public License.
either version 2 of the License, or any later version.
It includes the General Thermodynamic Package, version GTP-3.31,
Hillert's equilibrium calculation algorithm version HMS-3.0 ,
step/map/plot software version SMP-2.30 using GNUPLOT 5.2 graphics.
Numerical routines are extracted from LAPACK and BLAS and
the assessment procedure uses LMDIF from ANL.

Linked with OpenMp for parallel execution
 Warning, no environment variable OCHOME and no help file
 Working directory is: /home/ecappellari/transparant/sciantix-official/regression/test_JOG_MOX/point_01_r_0p4mm
--->OC6:
Read unformatted file: This is a save file for OC version:     OCF-3.20
Generated:  2026.04.19 21h32

 3E reading unformatted:        15024           0           0
3E Addition type   1, Inden-Hillert magn model for BCC_A2
3E Addition type   1, Inden-Hillert magn model for FCC_A1
 3E no experimental data
 3E no coefficient values saved
 3E Read assessment record
 No coefficients allocated
--->OC6:--->OC6:--->OC6:--->OC6:--->OC6:--->OC6:--->OC6:--->OC6:--->OC6:3Y Removed  1 gridpoints by merging
Gridmin:    7483 points   1.64E-02 s and      14 clockcycles, T= 1853.00
 3Y leaving global_gridmin
Phase change iteration:     4  -C1_MO2_AUTO#2
Equilibrium result:  17 its,  1.7919E-02 s,     18 cc, GS= -4.5949106E+05 J/mol
--->OC6:Equilibrium result:  11 its,  7.8900E-04 s,      1 cc, GS= -4.5949106E+05 J/mol
3Y Testing if any gridpoint is below the calculated equilibrium
--->OC6:--->OC6:
Overwriting previous results on ./OCoutput_matrix.OCU
3E allocating workspace:     122160          (   2160,   10000,    2)
 3E saving            3  symbols as texts
 3E used        12117  words out of       122160  for storing static data
 ceqrecsize not implemented          26
 3E Saving an equilibrium record requires     2854       0 words
 3E not storing unused equilibria from:            2
 3E Saving assessment record
 3E No experimental equilibrium range set
 3E allocating assessment head record          48
 3E no coefficients allocated
 3E no work array (assrec%wopt) allocated
Used    15059 words out of   122160,  12.33% for unformatted memory save
Written workspace      60236 bytes unformatted on ./OCoutput_matrix.OCU
--->OC6:--->OC6:Output on file: ./OCoutput_matrix.DAT
Output unit reset to screen:    6
--->OC6:--->OC6:
[OC output] ./OCoutput_matrix.DAT
----------------------------------------

%%%%%%%%%% OC output written: 2026-04-19  21h32

Output for equilibrium:   1, DEFAULT_EQUILIBRIUM          2026.04.19
Conditions .................................................:
  1:T=1853, 2:P=268000, 3:N(O)=0.664146, 4:N(PU)=.0959685, 5:N(U)=0.239885
 Degrees of freedom are   0

Some global data, reference state SER ......................:
T=   1853.00 K (  1579.85 C), P=  2.6800E+05 Pa, V=  0.0000E+00 m3
N=   1.0000E+00 moles, B=   9.1148E+01 g, RT=   1.5407E+04 J/mol
G= -4.59491E+05 J, G/N=-4.5949E+05 J/mol, H=-3.1516E+05 J, S= 7.789E+01 J/K

Some data for components ...................................:
Component name    Moles      Mole-fr  Chem.pot/RT  Activities  Ref.state
O                 6.6415E-01  0.66415 -1.3791E+01  1.0247E-06  GAS             
PU                9.5969E-02  0.09597 -3.4244E+01  1.3428E-15  SER (default)   
U                 2.3988E-01  0.23989 -3.4363E+01  1.1920E-15  SER (default)   

Some data for phases .......................................:
Name                Status Moles      Volume    Form.Units Cmp/FU dGm/RT  Comp:
C1_MO2#1................ E  1.000E+00  0.00E+00  3.36E-01    2.98  0.00E+00  X:
 O      6.64146E-01  U      2.39885E-01  PU     9.59685E-02


----------------------------------------

[OC parser] Parsed components
  O : moles=0.66415, x=0.66415, mu/RT=-13.791, activity=1.0247e-06, ref=GAS
  Pu : moles=0.095969, x=0.09597, mu/RT=-34.244, activity=1.3428e-15, ref=SER (default)
  U : moles=0.23988, x=0.23989, mu/RT=-34.363, activity=1.192e-15, ref=SER (default)

[OC parser] Parsed phases
  Phase condensed : moles=1, volume=0
    Elements
      O = 0.664146
      Pu = 0.0959685
      U = 0.239885
    Species
      C1_MO2 : moles=1, volume=0
        O = 0.664146
        Pu = 0.0959685
        U = 0.239885
OpenCalphad attempt for 'matrix' with WARM-START

[OC input] ./OCinput_matrix.OCM
----------------------------------------
r u ./OCoutput_matrix.OCU

set ref o gas * 100000

set c t=1853
set c p=336000
set c n(o)=0.664428
set c n(pu)=0.0955858
set c n(u)=0.239987
c e
c w

save u ./OCoutput_matrix Y

l /out=./OCoutput_matrix.DAT r 1

fin
----------------------------------------

3A unfished preparations for XTDB


Open Calphad (OC) software version   6.106 , linked 2026-04-16
with command line monitor version  73

This program is available with a GNU General Public License.
either version 2 of the License, or any later version.
It includes the General Thermodynamic Package, version GTP-3.31,
Hillert's equilibrium calculation algorithm version HMS-3.0 ,
step/map/plot software version SMP-2.30 using GNUPLOT 5.2 graphics.
Numerical routines are extracted from LAPACK and BLAS and
the assessment procedure uses LMDIF from ANL.

Linked with OpenMp for parallel execution
 Warning, no environment variable OCHOME and no help file
 Working directory is: /home/ecappellari/transparant/sciantix-official/regression/test_JOG_MOX/point_01_r_0p4mm
--->OC6:
Read unformatted file: This is a save file for OC version:     OCF-3.20
Generated:  2026.04.19 21h32

 3E reading unformatted:        15024           0           0
3E Addition type   1, Inden-Hillert magn model for BCC_A2
3E Addition type   1, Inden-Hillert magn model for FCC_A1
 3E no experimental data
 3E no coefficient values saved
 3E Read assessment record
 No coefficients allocated
--->OC6:--->OC6:--->OC6:--->OC6:--->OC6:--->OC6:--->OC6:--->OC6:--->OC6:3Y Removed  1 gridpoints by merging
Gridmin:    7483 points   1.52E-02 s and      14 clockcycles, T= 1853.00
 3Y leaving global_gridmin
Phase change iteration:     4  -C1_MO2_AUTO#2
Equilibrium result:  17 its,  1.6528E-02 s,     17 cc, GS= -4.5946173E+05 J/mol
--->OC6:Equilibrium result:  13 its,  9.1600E-04 s,      1 cc, GS= -4.5946173E+05 J/mol
3Y Testing if any gridpoint is below the calculated equilibrium
--->OC6:--->OC6:
Overwriting previous results on ./OCoutput_matrix.OCU
3E allocating workspace:     122160          (   2160,   10000,    2)
 3E saving            3  symbols as texts
 3E used        12117  words out of       122160  for storing static data
 ceqrecsize not implemented          26
 3E Saving an equilibrium record requires     2854       0 words
 3E not storing unused equilibria from:            2
 3E Saving assessment record
 3E No experimental equilibrium range set
 3E allocating assessment head record          48
 3E no coefficients allocated
 3E no work array (assrec%wopt) allocated
Used    15059 words out of   122160,  12.33% for unformatted memory save
Written workspace      60236 bytes unformatted on ./OCoutput_matrix.OCU
--->OC6:--->OC6:Output on file: ./OCoutput_matrix.DAT
Output unit reset to screen:    6
--->OC6:--->OC6:
[OC output] ./OCoutput_matrix.DAT
----------------------------------------

%%%%%%%%%% OC output written: 2026-04-19  21h32

Output for equilibrium:   1, DEFAULT_EQUILIBRIUM          2026.04.19
Conditions .................................................:
  1:T=1853, 2:P=336000, 3:N(O)=0.664428, 4:N(PU)=.0955858, 5:N(U)=0.239987
 Degrees of freedom are   0

Some global data, reference state SER ......................:
T=   1853.00 K (  1579.85 C), P=  3.3600E+05 Pa, V=  0.0000E+00 m3
N=   1.0000E+00 moles, B=   9.1083E+01 g, RT=   1.5407E+04 J/mol
G= -4.59462E+05 J, G/N=-4.5946E+05 J/mol, H=-3.1525E+05 J, S= 7.783E+01 J/K

Some data for components ...................................:
Component name    Moles      Mole-fr  Chem.pot/RT  Activities  Ref.state
O                 6.6443E-01  0.66443 -1.3726E+01  1.0933E-06  GAS             
PU                9.5586E-02  0.09559 -3.4587E+01  9.5315E-16  SER (default)   
U                 2.3999E-01  0.23999 -3.4719E+01  8.3547E-16  SER (default)   

Some data for phases .......................................:
Name                Status Moles      Volume    Form.Units Cmp/FU dGm/RT  Comp:
C1_MO2#1................ E  1.000E+00  0.00E+00  3.36E-01    2.98  0.00E+00  X:
 O      6.64427E-01  U      2.39987E-01  PU     9.55857E-02


----------------------------------------

[OC parser] Parsed components
  O : moles=0.66443, x=0.66443, mu/RT=-13.726, activity=1.0933e-06, ref=GAS
  Pu : moles=0.095586, x=0.09559, mu/RT=-34.587, activity=9.5315e-16, ref=SER (default)
  U : moles=0.23999, x=0.23999, mu/RT=-34.719, activity=8.3547e-16, ref=SER (default)

[OC parser] Parsed phases
  Phase condensed : moles=1, volume=0
    Elements
      O = 0.664427
      Pu = 0.0955857
      U = 0.239987
    Species
      C1_MO2 : moles=1, volume=0
        O = 0.664427
        Pu = 0.0955857
        U = 0.239987
OpenCalphad attempt for 'at grain boundary' with WARM-START

[OC input] ./OCinput_fission_products.OCM
----------------------------------------
@$ Initialize variables:
r t /home/ecappellari/transparant/opencalphad/data/CsMoO_TAFID_2021_Anna cs mo o

set ref o gas * 100000

set c t=1853
set c p=336000
set c n(cs)=5.81094e-05
set c n(mo)=0.000147376
set c n(o)=0.999795
c e
set c n(o)=none
set c mu(o)=-422936

c w

save u ./OCoutput_fission_products Y

l /out=./OCoutput_fission_products.DAT r 1

fin
----------------------------------------

3A unfished preparations for XTDB


Open Calphad (OC) software version   6.106 , linked 2026-04-16
with command line monitor version  73

This program is available with a GNU General Public License.
either version 2 of the License, or any later version.
It includes the General Thermodynamic Package, version GTP-3.31,
Hillert's equilibrium calculation algorithm version HMS-3.0 ,
step/map/plot software version SMP-2.30 using GNUPLOT 5.2 graphics.
Numerical routines are extracted from LAPACK and BLAS and
the assessment procedure uses LMDIF from ANL.

Linked with OpenMp for parallel execution
 Warning, no environment variable OCHOME and no help file
 Working directory is: /home/ecappellari/transparant/sciantix-official/regression/test_JOG_MOX/point_01_r_0p4mm
--->OC6:--->OC6: 3E Database file extention is: ".tdb"
Database has  3 elements: CS MO O 
Give the elements to select, finish with empty line
Selected  3 elements: CS MO O 
Select elements /no more/:Selected  3 elements: CS MO O 
3E reading database file: /home/ecappellari/transparant/opencalphad/data/CsMoO_TAFID_2021_Anna.TDB

Out of    82 model parameters    82 have been entered


There are     1 bibliographic references
REF0            '*** Not set by database or user'

--->OC6:--->OC6:--->OC6:--->OC6:--->OC6:--->OC6:--->OC6:--->OC6: 3Y Composition set(s) created:            1
Gridmin:    9683 points   2.28E-02 s and      22 clockcycles, T= 1853.00
 3Y leaving global_gridmin
Phase change iteration:     4  -LIQUID_AUTO#2
Phase change iteration:     5  +LIQUID_AUTO#2
Phase change iteration:     9  +CS7O1
Phase change iteration:    11  -LIQUID_AUTO#2
Phase change iteration:    15  +CS2MOO4_S2
Phase change iteration:    20  -LIQUID#1
Phase change iteration:    30  -CS2MOO4_S2
Equilibrium result:  61 its,  2.8556E-02 s,     29 cc, GS= -2.1023878E+05 J/mol
--->OC6:--->OC6:--->OC6:--->OC6:Phase change iteration:     4  +BCC_A2
Equilibrium result:  21 its,  1.7170E-03 s,      2 cc, GS= -3.0573413E+01 J/mol
3Y Testing if any gridpoint is below the calculated equilibrium
--->OC6:--->OC6:3E allocating workspace:     123330          (   3330,   10000,    2)
 3E saving            3  symbols as texts
 3E used        12286  words out of       123330  for storing static data
 ceqrecsize not implemented          39
 3E Saving an equilibrium record requires     4188       0 words
 3E not storing unused equilibria from:            2
 3E Saving assessment record
 3E No experimental equilibrium range set
 3E allocating assessment head record          48
 3E no coefficients allocated
 3E no work array (assrec%wopt) allocated
Used    16562 words out of   123330,  13.43% for unformatted memory save
Written workspace      66248 bytes unformatted on ./OCoutput_fission_products.OCU
--->OC6:--->OC6:Output on file: ./OCoutput_fission_products.DAT
Output unit reset to screen:    6
--->OC6:--->OC6:
[OC output] ./OCoutput_fission_products.DAT
----------------------------------------

%%%%%%%%%% OC output written: 2026-04-19  21h32

Output for equilibrium:   1, DEFAULT_EQUILIBRIUM          2026.04.19
Conditions .................................................:
  1:T=1853, 2:P=336000, 3:N(CS)=5.81094E-05, 4:N(MO)=.000147376, 5:MU(O)=
    -422936
 Degrees of freedom are   0

Some global data, reference state SER ......................:
T=   1853.00 K (  1579.85 C), P=  3.3600E+05 Pa, V=  2.6254E-06 m3
N=   2.0549E-04 moles, B=   2.1863E-02 g, RT=   1.5407E+04 J/mol
G= -3.05734E+01 J, G/N=-1.4879E+05 J/mol, H= 1.2957E+01 J, S= 2.349E-02 J/K

Some data for components ...................................:
Component name    Moles      Mole-fr  Chem.pot/RT  Activities  Ref.state
CS                5.8109E-05  0.28279 -1.7424E+01  2.7081E-08  SER (default)   
MO                1.4738E-04  0.71721 -6.5946E+00  1.3677E-03  SER (default)   
O                 1.1372E-14  0.00000 -2.7451E+01  1.1969E-12  GAS             

Some data for phases .......................................:
Name                Status Moles      Volume    Form.Units Cmp/FU dGm/RT  Comp:
GAS..................... E  5.792E-05  2.63E-06  5.73E-05    1.01  0.00E+00  X:
 CS     1.00000E+00  O      1.87926E-10  MO     4.40743E-12
Constitution: There are    18 constituents:
 CS           9.88358E-01  MOO          2.26173E-17  MOO3         3.26965E-29
 CS2          1.16417E-02  MO2          8.05325E-18  MO4O12       1.00000E-30
 CS2O         1.88642E-10  MOO2         1.84188E-22  MO3O9        1.00000E-30
 MO           4.45870E-12  CS2O2        3.06437E-23  MO2O6        1.00000E-30
 CSO          1.47230E-12  O2           1.43259E-24  O3           1.00000E-30
 O            1.29317E-16  CS2MOO4      1.44810E-26  MO5O15       1.00000E-30

BCC_A2.................. E  1.476E-04  0.00E+00  1.48E-04    1.00  0.00E+00  X:
 MO     9.98736E-01  CS     1.26401E-03  O      3.30033E-12


----------------------------------------

[OC parser] Parsed components
  Cs : moles=5.8109e-05, x=0.28279, mu/RT=-17.424, activity=2.7081e-08, ref=SER (default)
  Mo : moles=0.00014738, x=0.71721, mu/RT=-6.5946, activity=0.0013677, ref=SER (default)
  O : moles=1.1372e-14, x=0, mu/RT=-27.451, activity=1.1969e-12, ref=GAS

[OC parser] Parsed phases
  Phase condensed : moles=0.0001476, volume=0
    Elements
      Cs = 1.86568e-07
      Mo = 0.000147413
      O = 4.87129e-16
    Species
      BCC_A2 : moles=0.0001476, volume=0
        Cs = 1.86568e-07
        Mo = 0.000147413
        O = 4.87129e-16
  Phase gas : moles=5.792e-05, volume=2.63e-06
    Elements
      Cs = 5.792e-05
      Mo = 2.55278e-16
      O = 1.08847e-14
    Species
      CS : moles=5.72457e-05, volume=0
      CS2 : moles=6.74287e-07, volume=0
      CS2MOO4 : moles=8.3874e-31, volume=0
      CS2O : moles=1.09261e-14, volume=0
      CS2O2 : moles=1.77488e-27, volume=0
      CSO : moles=8.52756e-17, volume=0
      MO : moles=2.58248e-16, volume=0
      MO2 : moles=4.66444e-22, volume=0
      MO2O6 : moles=5.792e-35, volume=0
      MO3O9 : moles=5.792e-35, volume=0
      MO4O12 : moles=5.792e-35, volume=0
      MO5O15 : moles=5.792e-35, volume=0
      MOO : moles=1.30999e-21, volume=0
      MOO2 : moles=1.06682e-26, volume=0
      MOO3 : moles=1.89378e-33, volume=0
      O : moles=7.49004e-21, volume=0
      O2 : moles=8.29756e-29, volume=0
      O3 : moles=5.792e-35, volume=0
      are : moles=0.00104256, volume=0
OpenCalphad attempt for 'matrix' with WARM-START

[OC input] ./OCinput_matrix.OCM
----------------------------------------
r u ./OCoutput_matrix.OCU

set ref o gas * 100000

set c t=1853
set c p=404000
set c n(o)=0.664709
set c n(pu)=0.0952027
set c n(u)=0.240088
c e
c w

save u ./OCoutput_matrix Y

l /out=./OCoutput_matrix.DAT r 1

fin
----------------------------------------

3A unfished preparations for XTDB


Open Calphad (OC) software version   6.106 , linked 2026-04-16
with command line monitor version  73

This program is available with a GNU General Public License.
either version 2 of the License, or any later version.
It includes the General Thermodynamic Package, version GTP-3.31,
Hillert's equilibrium calculation algorithm version HMS-3.0 ,
step/map/plot software version SMP-2.30 using GNUPLOT 5.2 graphics.
Numerical routines are extracted from LAPACK and BLAS and
the assessment procedure uses LMDIF from ANL.

Linked with OpenMp for parallel execution
 Warning, no environment variable OCHOME and no help file
 Working directory is: /home/ecappellari/transparant/sciantix-official/regression/test_JOG_MOX/point_01_r_0p4mm
--->OC6:
Read unformatted file: This is a save file for OC version:     OCF-3.20
Generated:  2026.04.19 21h32

 3E reading unformatted:        15024           0           0
3E Addition type   1, Inden-Hillert magn model for BCC_A2
3E Addition type   1, Inden-Hillert magn model for FCC_A1
 3E no experimental data
 3E no coefficient values saved
 3E Read assessment record
 No coefficients allocated
--->OC6:--->OC6:--->OC6:--->OC6:--->OC6:--->OC6:--->OC6:--->OC6:--->OC6:3Y Removed  1 gridpoints by merging
Gridmin:    7483 points   1.61E-02 s and      13 clockcycles, T= 1853.00
 3Y leaving global_gridmin
Phase change iteration:     4  -C1_MO2_AUTO#2
Equilibrium result:  17 its,  1.7453E-02 s,     17 cc, GS= -4.5942889E+05 J/mol
--->OC6:Equilibrium result:  14 its,  9.6300E-04 s,      1 cc, GS= -4.5942889E+05 J/mol
3Y Testing if any gridpoint is below the calculated equilibrium
--->OC6:--->OC6:
Overwriting previous results on ./OCoutput_matrix.OCU
3E allocating workspace:     122160          (   2160,   10000,    2)
 3E saving            3  symbols as texts
 3E used        12117  words out of       122160  for storing static data
 ceqrecsize not implemented          26
 3E Saving an equilibrium record requires     2854       0 words
 3E not storing unused equilibria from:            2
 3E Saving assessment record
 3E No experimental equilibrium range set
 3E allocating assessment head record          48
 3E no coefficients allocated
 3E no work array (assrec%wopt) allocated
Used    15059 words out of   122160,  12.33% for unformatted memory save
Written workspace      60236 bytes unformatted on ./OCoutput_matrix.OCU
--->OC6:--->OC6:Output on file: ./OCoutput_matrix.DAT
Output unit reset to screen:    6
--->OC6:--->OC6:
[OC output] ./OCoutput_matrix.DAT
----------------------------------------

%%%%%%%%%% OC output written: 2026-04-19  21h32

Output for equilibrium:   1, DEFAULT_EQUILIBRIUM          2026.04.19
Conditions .................................................:
  1:T=1853, 2:P=404000, 3:N(O)=0.664709, 4:N(PU)=.0952027, 5:N(U)=0.240088
 Degrees of freedom are   0

Some global data, reference state SER ......................:
T=   1853.00 K (  1579.85 C), P=  4.0400E+05 Pa, V=  0.0000E+00 m3
N=   1.0000E+00 moles, B=   9.1018E+01 g, RT=   1.5407E+04 J/mol
G= -4.59429E+05 J, G/N=-4.5943E+05 J/mol, H=-3.1533E+05 J, S= 7.777E+01 J/K

Some data for components ...................................:
Component name    Moles      Mole-fr  Chem.pot/RT  Activities  Ref.state
O                 6.6471E-01  0.66471 -1.3625E+01  1.2101E-06  GAS             
PU                9.5203E-02  0.09520 -3.4961E+01  6.5540E-16  SER (default)   
U                 2.4009E-01  0.24009 -3.5106E+01  5.6708E-16  SER (default)   

Some data for phases .......................................:
Name                Status Moles      Volume    Form.Units Cmp/FU dGm/RT  Comp:
C1_MO2#1................ E  1.000E+00  0.00E+00  3.35E-01    2.98  0.00E+00  X:
 O      6.64709E-01  U      2.40088E-01  PU     9.52027E-02


----------------------------------------

[OC parser] Parsed components
  O : moles=0.66471, x=0.66471, mu/RT=-13.625, activity=1.2101e-06, ref=GAS
  Pu : moles=0.095203, x=0.0952, mu/RT=-34.961, activity=6.554e-16, ref=SER (default)
  U : moles=0.24009, x=0.24009, mu/RT=-35.106, activity=5.6708e-16, ref=SER (default)

[OC parser] Parsed phases
  Phase condensed : moles=1, volume=0
    Elements
      O = 0.664709
      Pu = 0.0952027
      U = 0.240088
    Species
      C1_MO2 : moles=1, volume=0
        O = 0.664709
        Pu = 0.0952027
        U = 0.240088
OpenCalphad attempt for 'at grain boundary' with WARM-START

[OC input] ./OCinput_fission_products.OCM
----------------------------------------
r u ./OCoutput_fission_products.OCU

set ref o gas * 100000

set c t=1853
set c p=404000
set c n(cs)=5.84635e-05
set c n(mo)=0.00025932
set c n(o)=0.999682
c e
set c n(o)=none
set c mu(o)=-419824

c w

save u ./OCoutput_fission_products Y

l /out=./OCoutput_fission_products.DAT r 1

fin
----------------------------------------

3A unfished preparations for XTDB


Open Calphad (OC) software version   6.106 , linked 2026-04-16
with command line monitor version  73

This program is available with a GNU General Public License.
either version 2 of the License, or any later version.
It includes the General Thermodynamic Package, version GTP-3.31,
Hillert's equilibrium calculation algorithm version HMS-3.0 ,
step/map/plot software version SMP-2.30 using GNUPLOT 5.2 graphics.
Numerical routines are extracted from LAPACK and BLAS and
the assessment procedure uses LMDIF from ANL.

Linked with OpenMp for parallel execution
 Warning, no environment variable OCHOME and no help file
 Working directory is: /home/ecappellari/transparant/sciantix-official/regression/test_JOG_MOX/point_01_r_0p4mm
--->OC6:
Read unformatted file: This is a save file for OC version:     OCF-3.20
Generated:  2026.04.19 21h32

 3E reading unformatted:        16527           0           0
3E Addition type   1, Inden-Hillert magn model for BCC_A2
3E Addition type   1, Inden-Hillert magn model for FCC_A1
3E Addition type   1, Inden-Hillert magn model for HCP_A3
 3E no experimental data
 3E no coefficient values saved
 3E Read assessment record
 No coefficients allocated
--->OC6:--->OC6:--->OC6:--->OC6:--->OC6:--->OC6:--->OC6:--->OC6:--->OC6:
Error codes:   4144     0    50
Message: Degrees of freedom not zero

--->OC6:--->OC6:--->OC6:--->OC6:Equilibrium result:   9 its,  9.5500E-04 s,      1 cc, GS= -4.1879296E+01 J/mol
3Y Testing if any gridpoint is below the calculated equilibrium
--->OC6:--->OC6:
Overwriting previous results on ./OCoutput_fission_products.OCU
3E allocating workspace:     123330          (   3330,   10000,    2)
 3E saving            3  symbols as texts
 3E used        12286  words out of       123330  for storing static data
 ceqrecsize not implemented          39
 3E Saving an equilibrium record requires     4188       0 words
 3E not storing unused equilibria from:            2
 3E Saving assessment record
 3E No experimental equilibrium range set
 3E allocating assessment head record          48
 3E no coefficients allocated
 3E no work array (assrec%wopt) allocated
Used    16562 words out of   123330,  13.43% for unformatted memory save
Written workspace      66248 bytes unformatted on ./OCoutput_fission_products.OCU
--->OC6:--->OC6:Output on file: ./OCoutput_fission_products.DAT
Output unit reset to screen:    6
--->OC6:--->OC6:
[OC output] ./OCoutput_fission_products.DAT
----------------------------------------

%%%%%%%%%% OC output written: 2026-04-19  21h32

Output for equilibrium:   1, DEFAULT_EQUILIBRIUM          2026.04.19
Conditions .................................................:
  1:T=1853, 2:P=404000, 3:N(CS)=5.84635E-05, 4:N(MO)=.00025932, 5:MU(O)=
    -419824
 Degrees of freedom are   0

Some global data, reference state SER ......................:
T=   1853.00 K (  1579.85 C), P=  4.0400E+05 Pa, V=  2.1841E-06 m3
N=   3.1778E-04 moles, B=   3.2650E-02 g, RT=   1.5407E+04 J/mol
G= -4.18793E+01 J, G/N=-1.3179E+05 J/mol, H= 1.8052E+01 J, S= 3.234E-02 J/K

Some data for components ...................................:
Component name    Moles      Mole-fr  Chem.pot/RT  Activities  Ref.state
CS                5.8463E-05  0.18397 -1.7242E+01  3.2487E-08  SER (default)   
MO                2.5932E-04  0.81603 -6.5949E+00  1.3674E-03  SER (default)   
O                 2.3136E-14  0.00000 -2.7249E+01  1.4648E-12  GAS             

Some data for phases .......................................:
Name                Status Moles      Volume    Form.Units Cmp/FU dGm/RT  Comp:
GAS..................... E  5.807E-05  2.18E-06  5.73E-05    1.01  0.00E+00  X:
 CS     1.00000E+00  O      3.83663E-10  MO     3.65638E-12
Constitution: There are    18 constituents:
 CS           9.86067E-01  MOO          2.54591E-17  MOO3         6.57023E-29
 CS2          1.39329E-02  MO2          6.69437E-18  MO4O12       1.00000E-30
 CS2O         3.86990E-10  MOO2         2.75802E-22  MO3O9        1.00000E-30
 MO           3.70729E-12  CS2O2        6.60474E-23  MO2O6        1.00000E-30
 CSO          2.01860E-12  O2           2.14569E-24  O3           1.00000E-30
 O            1.44330E-16  CS2MOO4      5.61940E-26  MO5O15       1.00000E-30

BCC_A2.................. E  2.597E-04  0.00E+00  2.60E-04    1.00  0.00E+00  X:
 MO     9.98481E-01  CS     1.51880E-03  O      3.30000E-12


----------------------------------------

[OC parser] Parsed components
  Cs : moles=5.8463e-05, x=0.18397, mu/RT=-17.242, activity=3.2487e-08, ref=SER (default)
  Mo : moles=0.00025932, x=0.81603, mu/RT=-6.5949, activity=0.0013674, ref=SER (default)
  O : moles=2.3136e-14, x=0, mu/RT=-27.249, activity=1.4648e-12, ref=GAS

[OC parser] Parsed phases
  Phase condensed : moles=0.0002597, volume=0
    Elements
      Cs = 3.94432e-07
      Mo = 0.000259306
      O = 8.5701e-16
    Species
      BCC_A2 : moles=0.0002597, volume=0
        Cs = 3.94432e-07
        Mo = 0.000259306
        O = 8.5701e-16
  Phase gas : moles=5.807e-05, volume=2.18e-06
    Elements
      Cs = 5.807e-05
      Mo = 2.12326e-16
      O = 2.22793e-14
    Species
      CS : moles=5.72609e-05, volume=0
      CS2 : moles=8.09084e-07, volume=0
      CS2MOO4 : moles=3.26319e-30, volume=0
      CS2O : moles=2.24725e-14, volume=0
      CS2O2 : moles=3.83537e-27, volume=0
      CSO : moles=1.1722e-16, volume=0
      MO : moles=2.15282e-16, volume=0
      MO2 : moles=3.88742e-22, volume=0
      MO2O6 : moles=5.807e-35, volume=0
      MO3O9 : moles=5.807e-35, volume=0
      MO4O12 : moles=5.807e-35, volume=0
      MO5O15 : moles=5.807e-35, volume=0
      MOO : moles=1.47841e-21, volume=0
      MOO2 : moles=1.60158e-26, volume=0
      MOO3 : moles=3.81533e-33, volume=0
      O : moles=8.38124e-21, volume=0
      O2 : moles=1.246e-28, volume=0
      O3 : moles=5.807e-35, volume=0
      are : moles=0.00104526, volume=0
OpenCalphad attempt for 'matrix' with WARM-START

[OC input] ./OCinput_matrix.OCM
----------------------------------------
r u ./OCoutput_matrix.OCU

set ref o gas * 100000

set c t=1853
set c p=472000
set c n(o)=0.664991
set c n(pu)=0.0948194
set c n(u)=0.24019
c e
c w

save u ./OCoutput_matrix Y

l /out=./OCoutput_matrix.DAT r 1

fin
----------------------------------------

3A unfished preparations for XTDB


Open Calphad (OC) software version   6.106 , linked 2026-04-16
with command line monitor version  73

This program is available with a GNU General Public License.
either version 2 of the License, or any later version.
It includes the General Thermodynamic Package, version GTP-3.31,
Hillert's equilibrium calculation algorithm version HMS-3.0 ,
step/map/plot software version SMP-2.30 using GNUPLOT 5.2 graphics.
Numerical routines are extracted from LAPACK and BLAS and
the assessment procedure uses LMDIF from ANL.

Linked with OpenMp for parallel execution
 Warning, no environment variable OCHOME and no help file
 Working directory is: /home/ecappellari/transparant/sciantix-official/regression/test_JOG_MOX/point_01_r_0p4mm
--->OC6:
Read unformatted file: This is a save file for OC version:     OCF-3.20
Generated:  2026.04.19 21h32

 3E reading unformatted:        15024           0           0
3E Addition type   1, Inden-Hillert magn model for BCC_A2
3E Addition type   1, Inden-Hillert magn model for FCC_A1
 3E no experimental data
 3E no coefficient values saved
 3E Read assessment record
 No coefficients allocated
--->OC6:--->OC6:--->OC6:--->OC6:--->OC6:--->OC6:--->OC6:--->OC6:--->OC6:3Y Removed  1 gridpoints by merging
Gridmin:    7483 points   1.63E-02 s and      13 clockcycles, T= 1853.00
 3Y leaving global_gridmin
Phase change iteration:     4  -C1_MO2_AUTO#2
Equilibrium result:  17 its,  1.7811E-02 s,     18 cc, GS= -4.5939433E+05 J/mol
--->OC6:Equilibrium result:  14 its,  1.0080E-03 s,      1 cc, GS= -4.5939433E+05 J/mol
3Y Testing if any gridpoint is below the calculated equilibrium
--->OC6:--->OC6:
Overwriting previous results on ./OCoutput_matrix.OCU
3E allocating workspace:     122160          (   2160,   10000,    2)
 3E saving            3  symbols as texts
 3E used        12117  words out of       122160  for storing static data
 ceqrecsize not implemented          26
 3E Saving an equilibrium record requires     2854       0 words
 3E not storing unused equilibria from:            2
 3E Saving assessment record
 3E No experimental equilibrium range set
 3E allocating assessment head record          48
 3E no coefficients allocated
 3E no work array (assrec%wopt) allocated
Used    15059 words out of   122160,  12.33% for unformatted memory save
Written workspace      60236 bytes unformatted on ./OCoutput_matrix.OCU
--->OC6:--->OC6:Output on file: ./OCoutput_matrix.DAT
Output unit reset to screen:    6
--->OC6:--->OC6:
[OC output] ./OCoutput_matrix.DAT
----------------------------------------

%%%%%%%%%% OC output written: 2026-04-19  21h32

Output for equilibrium:   1, DEFAULT_EQUILIBRIUM          2026.04.19
Conditions .................................................:
  1:T=1853, 2:P=472000, 3:N(O)=0.664991, 4:N(PU)=.0948194, 5:N(U)=0.24019
 Degrees of freedom are   0

Some global data, reference state SER ......................:
T=   1853.00 K (  1579.85 C), P=  4.7200E+05 Pa, V=  0.0000E+00 m3
N=   1.0000E+00 moles, B=   9.0953E+01 g, RT=   1.5407E+04 J/mol
G= -4.59394E+05 J, G/N=-4.5939E+05 J/mol, H=-3.1541E+05 J, S= 7.771E+01 J/K

Some data for components ...................................:
Component name    Moles      Mole-fr  Chem.pot/RT  Activities  Ref.state
O                 6.6499E-01  0.66499 -1.3489E+01  1.3866E-06  GAS             
PU                9.4819E-02  0.09482 -3.5376E+01  4.3284E-16  SER (default)   
U                 2.4019E-01  0.24019 -3.5534E+01  3.6956E-16  SER (default)   

Some data for phases .......................................:
Name                Status Moles      Volume    Form.Units Cmp/FU dGm/RT  Comp:
C1_MO2#1................ E  1.000E+00  0.00E+00  3.35E-01    2.98  0.00E+00  X:
 O      6.64991E-01  U      2.40190E-01  PU     9.48194E-02


----------------------------------------

[OC parser] Parsed components
  O : moles=0.66499, x=0.66499, mu/RT=-13.489, activity=1.3866e-06, ref=GAS
  Pu : moles=0.094819, x=0.09482, mu/RT=-35.376, activity=4.3284e-16, ref=SER (default)
  U : moles=0.24019, x=0.24019, mu/RT=-35.534, activity=3.6956e-16, ref=SER (default)

[OC parser] Parsed phases
  Phase condensed : moles=1, volume=0
    Elements
      O = 0.664991
      Pu = 0.0948194
      U = 0.24019
    Species
      C1_MO2 : moles=1, volume=0
        O = 0.664991
        Pu = 0.0948194
        U = 0.24019
OpenCalphad attempt for 'at grain boundary' with WARM-START

[OC input] ./OCinput_fission_products.OCM
----------------------------------------
r u ./OCoutput_fission_products.OCU

set ref o gas * 100000

set c t=1853
set c p=472000
set c n(cs)=5.82561e-05
set c n(mo)=0.000380502
set c n(o)=0.999561
c e
set c n(o)=none
set c mu(o)=-415634

c w

save u ./OCoutput_fission_products Y

l /out=./OCoutput_fission_products.DAT r 1

fin
----------------------------------------

3A unfished preparations for XTDB


Open Calphad (OC) software version   6.106 , linked 2026-04-16
with command line monitor version  73

This program is available with a GNU General Public License.
either version 2 of the License, or any later version.
It includes the General Thermodynamic Package, version GTP-3.31,
Hillert's equilibrium calculation algorithm version HMS-3.0 ,
step/map/plot software version SMP-2.30 using GNUPLOT 5.2 graphics.
Numerical routines are extracted from LAPACK and BLAS and
the assessment procedure uses LMDIF from ANL.

Linked with OpenMp for parallel execution
 Warning, no environment variable OCHOME and no help file
 Working directory is: /home/ecappellari/transparant/sciantix-official/regression/test_JOG_MOX/point_01_r_0p4mm
--->OC6:
Read unformatted file: This is a save file for OC version:     OCF-3.20
Generated:  2026.04.19 21h32

 3E reading unformatted:        16527           0           0
3E Addition type   1, Inden-Hillert magn model for BCC_A2
3E Addition type   1, Inden-Hillert magn model for FCC_A1
3E Addition type   1, Inden-Hillert magn model for HCP_A3
 3E no experimental data
 3E no coefficient values saved
 3E Read assessment record
 No coefficients allocated
--->OC6:--->OC6:--->OC6:--->OC6:--->OC6:--->OC6:--->OC6:--->OC6:--->OC6:
Error codes:   4144     0    50
Message: Degrees of freedom not zero

--->OC6:--->OC6:--->OC6:--->OC6:Equilibrium result:   9 its,  7.1800E-04 s,      1 cc, GS= -5.4000925E+01 J/mol
3Y Testing if any gridpoint is below the calculated equilibrium
--->OC6:--->OC6:
Overwriting previous results on ./OCoutput_fission_products.OCU
3E allocating workspace:     123330          (   3330,   10000,    2)
 3E saving            3  symbols as texts
 3E used        12286  words out of       123330  for storing static data
 ceqrecsize not implemented          39
 3E Saving an equilibrium record requires     4188       0 words
 3E not storing unused equilibria from:            2
 3E Saving assessment record
 3E No experimental equilibrium range set
 3E allocating assessment head record          48
 3E no coefficients allocated
 3E no work array (assrec%wopt) allocated
Used    16562 words out of   123330,  13.43% for unformatted memory save
Written workspace      66248 bytes unformatted on ./OCoutput_fission_products.OCU
--->OC6:--->OC6:Output on file: ./OCoutput_fission_products.DAT
Output unit reset to screen:    6
--->OC6:--->OC6:
[OC output] ./OCoutput_fission_products.DAT
----------------------------------------

%%%%%%%%%% OC output written: 2026-04-19  21h32

Output for equilibrium:   1, DEFAULT_EQUILIBRIUM          2026.04.19
Conditions .................................................:
  1:T=1853, 2:P=472000, 3:N(CS)=5.82561E-05, 4:N(MO)=.000380502, 5:MU(O)=
    -415634
 Degrees of freedom are   0

Some global data, reference state SER ......................:
T=   1853.00 K (  1579.85 C), P=  4.7200E+05 Pa, V=  1.8495E-06 m3
N=   4.3876E-04 moles, B=   4.4248E-02 g, RT=   1.5407E+04 J/mol
G= -5.40009E+01 J, G/N=-1.2308E+05 J/mol, H= 2.3503E+01 J, S= 4.183E-02 J/K

Some data for components ...................................:
Component name    Moles      Mole-fr  Chem.pot/RT  Activities  Ref.state
CS                5.8256E-05  0.13277 -1.7089E+01  3.7867E-08  SER (default)   
MO                3.8050E-04  0.86723 -6.5951E+00  1.3670E-03  SER (default)   
O                 3.7598E-14  0.00000 -2.6977E+01  1.9226E-12  GAS             

Some data for phases .......................................:
Name                Status Moles      Volume    Form.Units Cmp/FU dGm/RT  Comp:
GAS..................... E  5.758E-05  1.85E-06  5.67E-05    1.02  0.00E+00  X:
 CS     1.00000E+00  O      6.31113E-10  MO     3.12184E-12
Constitution: There are    18 constituents:
 CS           9.83797E-01  MOO          3.09075E-17  MOO3         1.60539E-28
 CS2          1.62032E-02  MO2          5.72704E-18  MO4O12       1.00000E-30
 CS2O         6.38482E-10  MOO2         4.75015E-22  MO3O9        1.00000E-30
 MO           3.17239E-12  CS2O2        1.54595E-22  MO2O6        1.00000E-30
 CSO          2.85719E-12  O2           3.69647E-24  O3           1.00000E-30
 O            1.75262E-16  CS2MOO4      2.64667E-25  MO5O15       1.00000E-30

BCC_A2.................. E  3.812E-04  0.00E+00  3.81E-04    1.00  0.00E+00  X:
 MO     9.98227E-01  CS     1.77328E-03  O      3.30000E-12


----------------------------------------

[OC parser] Parsed components
  Cs : moles=5.8256e-05, x=0.13277, mu/RT=-17.089, activity=3.7867e-08, ref=SER (default)
  Mo : moles=0.0003805, x=0.86723, mu/RT=-6.5951, activity=0.001367, ref=SER (default)
  O : moles=3.7598e-14, x=0, mu/RT=-26.977, activity=1.9226e-12, ref=GAS

[OC parser] Parsed phases
  Phase condensed : moles=0.0003812, volume=0
    Elements
      Cs = 6.75974e-07
      Mo = 0.000380524
      O = 1.25796e-15
    Species
      BCC_A2 : moles=0.0003812, volume=0
        Cs = 6.75974e-07
        Mo = 0.000380524
        O = 1.25796e-15
  Phase gas : moles=5.758e-05, volume=1.85e-06
    Elements
      Cs = 5.758e-05
      Mo = 1.79756e-16
      O = 3.63395e-14
    Species
      CS : moles=5.6647e-05, volume=0
      CS2 : moles=9.3298e-07, volume=0
      CS2MOO4 : moles=1.52395e-29, volume=0
      CS2O : moles=3.67638e-14, volume=0
      CS2O2 : moles=8.90158e-27, volume=0
      CSO : moles=1.64517e-16, volume=0
      MO : moles=1.82666e-16, volume=0
      MO2 : moles=3.29763e-22, volume=0
      MO2O6 : moles=5.758e-35, volume=0
      MO3O9 : moles=5.758e-35, volume=0
      MO4O12 : moles=5.758e-35, volume=0
      MO5O15 : moles=5.758e-35, volume=0
      MOO : moles=1.77965e-21, volume=0
      MOO2 : moles=2.73514e-26, volume=0
      MOO3 : moles=9.24384e-33, volume=0
      O : moles=1.00916e-20, volume=0
      O2 : moles=2.12843e-28, volume=0
      O3 : moles=5.758e-35, volume=0
      are : moles=0.00103644, volume=0
OpenCalphad attempt for 'matrix' with WARM-START

[OC input] ./OCinput_matrix.OCM
----------------------------------------
r u ./OCoutput_matrix.OCU

set ref o gas * 100000

set c t=1853
set c p=540000
set c n(o)=0.665273
set c n(pu)=0.0944357
set c n(u)=0.240292
c e
c w

save u ./OCoutput_matrix Y

l /out=./OCoutput_matrix.DAT r 1

fin
----------------------------------------

3A unfished preparations for XTDB


Open Calphad (OC) software version   6.106 , linked 2026-04-16
with command line monitor version  73

This program is available with a GNU General Public License.
either version 2 of the License, or any later version.
It includes the General Thermodynamic Package, version GTP-3.31,
Hillert's equilibrium calculation algorithm version HMS-3.0 ,
step/map/plot software version SMP-2.30 using GNUPLOT 5.2 graphics.
Numerical routines are extracted from LAPACK and BLAS and
the assessment procedure uses LMDIF from ANL.

Linked with OpenMp for parallel execution
 Warning, no environment variable OCHOME and no help file
 Working directory is: /home/ecappellari/transparant/sciantix-official/regression/test_JOG_MOX/point_01_r_0p4mm
--->OC6:
Read unformatted file: This is a save file for OC version:     OCF-3.20
Generated:  2026.04.19 21h32

 3E reading unformatted:        15024           0           0
3E Addition type   1, Inden-Hillert magn model for BCC_A2
3E Addition type   1, Inden-Hillert magn model for FCC_A1
 3E no experimental data
 3E no coefficient values saved
 3E Read assessment record
 No coefficients allocated
--->OC6:--->OC6:--->OC6:--->OC6:--->OC6:--->OC6:--->OC6:--->OC6:--->OC6:3Y Removed  1 gridpoints by merging
Gridmin:    7483 points   3.01E-02 s and      28 clockcycles, T= 1853.00
 3Y leaving global_gridmin
Phase change iteration:     4  -C1_MO2_AUTO#2
Equilibrium result:  17 its,  3.1509E-02 s,     32 cc, GS= -4.5935668E+05 J/mol
--->OC6:Equilibrium result:  13 its,  9.6200E-04 s,      1 cc, GS= -4.5935668E+05 J/mol
3Y Testing if any gridpoint is below the calculated equilibrium
--->OC6:--->OC6:
Overwriting previous results on ./OCoutput_matrix.OCU
3E allocating workspace:     122160          (   2160,   10000,    2)
 3E saving            3  symbols as texts
 3E used        12117  words out of       122160  for storing static data
 ceqrecsize not implemented          26
 3E Saving an equilibrium record requires     2854       0 words
 3E not storing unused equilibria from:            2
 3E Saving assessment record
 3E No experimental equilibrium range set
 3E allocating assessment head record          48
 3E no coefficients allocated
 3E no work array (assrec%wopt) allocated
Used    15059 words out of   122160,  12.33% for unformatted memory save
Written workspace      60236 bytes unformatted on ./OCoutput_matrix.OCU
--->OC6:--->OC6:Output on file: ./OCoutput_matrix.DAT
Output unit reset to screen:    6
--->OC6:--->OC6:
[OC output] ./OCoutput_matrix.DAT
----------------------------------------

%%%%%%%%%% OC output written: 2026-04-19  21h32

Output for equilibrium:   1, DEFAULT_EQUILIBRIUM          2026.04.19
Conditions .................................................:
  1:T=1853, 2:P=540000, 3:N(O)=0.665273, 4:N(PU)=.0944357, 5:N(U)=0.240292
 Degrees of freedom are   0

Some global data, reference state SER ......................:
T=   1853.00 K (  1579.85 C), P=  5.4000E+05 Pa, V=  0.0000E+00 m3
N=   1.0000E+00 moles, B=   9.0888E+01 g, RT=   1.5407E+04 J/mol
G= -4.59357E+05 J, G/N=-4.5936E+05 J/mol, H=-3.1548E+05 J, S= 7.764E+01 J/K

Some data for components ...................................:
Component name    Moles      Mole-fr  Chem.pot/RT  Activities  Ref.state
O                 6.6527E-01  0.66527 -1.3314E+01  1.6515E-06  GAS             
PU                9.4436E-02  0.09444 -3.5847E+01  2.7023E-16  SER (default)   
U                 2.4029E-01  0.24029 -3.6019E+01  2.2759E-16  SER (default)   

Some data for phases .......................................:
Name                Status Moles      Volume    Form.Units Cmp/FU dGm/RT  Comp:
C1_MO2#1................ E  1.000E+00  0.00E+00  3.35E-01    2.99  0.00E+00  X:
 O      6.65273E-01  U      2.40292E-01  PU     9.44356E-02


----------------------------------------

[OC parser] Parsed components
  O : moles=0.66527, x=0.66527, mu/RT=-13.314, activity=1.6515e-06, ref=GAS
  Pu : moles=0.094436, x=0.09444, mu/RT=-35.847, activity=2.7023e-16, ref=SER (default)
  U : moles=0.24029, x=0.24029, mu/RT=-36.019, activity=2.2759e-16, ref=SER (default)

[OC parser] Parsed phases
  Phase condensed : moles=1, volume=0
    Elements
      O = 0.665273
      Pu = 0.0944356
      U = 0.240292
    Species
      C1_MO2 : moles=1, volume=0
        O = 0.665273
        Pu = 0.0944356
        U = 0.240292
OpenCalphad attempt for 'at grain boundary' with WARM-START

[OC input] ./OCinput_fission_products.OCM
----------------------------------------
r u ./OCoutput_fission_products.OCU

set ref o gas * 100000

set c t=1853
set c p=540000
set c n(cs)=8.52909e-05
set c n(mo)=0.000507736
set c n(o)=0.999407
c e
set c n(o)=none
set c mu(o)=-410242

c w

save u ./OCoutput_fission_products Y

l /out=./OCoutput_fission_products.DAT r 1

fin
----------------------------------------

3A unfished preparations for XTDB


Open Calphad (OC) software version   6.106 , linked 2026-04-16
with command line monitor version  73

This program is available with a GNU General Public License.
either version 2 of the License, or any later version.
It includes the General Thermodynamic Package, version GTP-3.31,
Hillert's equilibrium calculation algorithm version HMS-3.0 ,
step/map/plot software version SMP-2.30 using GNUPLOT 5.2 graphics.
Numerical routines are extracted from LAPACK and BLAS and
the assessment procedure uses LMDIF from ANL.

Linked with OpenMp for parallel execution
 Warning, no environment variable OCHOME and no help file
 Working directory is: /home/ecappellari/transparant/sciantix-official/regression/test_JOG_MOX/point_01_r_0p4mm
--->OC6:
Read unformatted file: This is a save file for OC version:     OCF-3.20
Generated:  2026.04.19 21h32

 3E reading unformatted:        16527           0           0
3E Addition type   1, Inden-Hillert magn model for BCC_A2
3E Addition type   1, Inden-Hillert magn model for FCC_A1
3E Addition type   1, Inden-Hillert magn model for HCP_A3
 3E no experimental data
 3E no coefficient values saved
 3E Read assessment record
 No coefficients allocated
--->OC6:--->OC6:--->OC6:--->OC6:--->OC6:--->OC6:--->OC6:--->OC6:--->OC6:
Error codes:   4144     0    50
Message: Degrees of freedom not zero

--->OC6:--->OC6:--->OC6:--->OC6:Equilibrium result:   9 its,  7.2400E-04 s,      1 cc, GS= -7.3875231E+01 J/mol
3Y Testing if any gridpoint is below the calculated equilibrium
--->OC6:--->OC6:
Overwriting previous results on ./OCoutput_fission_products.OCU
3E allocating workspace:     123330          (   3330,   10000,    2)
 3E saving            3  symbols as texts
 3E used        12286  words out of       123330  for storing static data
 ceqrecsize not implemented          39
 3E Saving an equilibrium record requires     4188       0 words
 3E not storing unused equilibria from:            2
 3E Saving assessment record
 3E No experimental equilibrium range set
 3E allocating assessment head record          48
 3E no coefficients allocated
 3E no work array (assrec%wopt) allocated
Used    16562 words out of   123330,  13.43% for unformatted memory save
Written workspace      66248 bytes unformatted on ./OCoutput_fission_products.OCU
--->OC6:--->OC6:Output on file: ./OCoutput_fission_products.DAT
Output unit reset to screen:    6
--->OC6:--->OC6:
[OC output] ./OCoutput_fission_products.DAT
----------------------------------------

%%%%%%%%%% OC output written: 2026-04-19  21h32

Output for equilibrium:   1, DEFAULT_EQUILIBRIUM          2026.04.19
Conditions .................................................:
  1:T=1853, 2:P=540000, 3:N(CS)=8.52909E-05, 4:N(MO)=.000507736, 5:MU(O)=
    -410242
 Degrees of freedom are   0

Some global data, reference state SER ......................:
T=   1853.00 K (  1579.85 C), P=  5.4000E+05 Pa, V=  2.3605E-06 m3
N=   5.9303E-04 moles, B=   6.0048E-02 g, RT=   1.5407E+04 J/mol
G= -7.38752E+01 J, G/N=-1.2457E+05 J/mol, H= 3.2168E+01 J, S= 5.723E-02 J/K

Some data for components ...................................:
Component name    Moles      Mole-fr  Chem.pot/RT  Activities  Ref.state
CS                8.5291E-05  0.14382 -1.6957E+01  4.3224E-08  SER (default)   
MO                5.0774E-04  0.85618 -6.5954E+00  1.3667E-03  SER (default)   
O                 9.3440E-14  0.00000 -2.6627E+01  2.7283E-12  GAS             

Some data for phases .......................................:
Name                Status Moles      Volume    Form.Units Cmp/FU dGm/RT  Comp:
GAS..................... E  8.426E-05  2.36E-06  8.27E-05    1.02  0.00E+00  X:
 CS     1.00000E+00  O      1.08790E-09  MO     2.72202E-12
Constitution: There are    18 constituents:
 CS           9.81547E-01  MOO          4.09941E-17  MOO3         4.90541E-28
 CS2          1.84528E-02  MO2          5.00334E-18  MO4O12       1.00000E-30
 CS2O         1.10365E-09  MOO2         9.56276E-22  MO3O9        1.00000E-30
 CSO          4.32677E-12  CS2O2        4.05597E-22  MO2O6        1.00000E-30
 MO           2.77220E-12  O2           7.44342E-24  O3           1.00000E-30
 O            2.32516E-16  CS2MOO4      1.59929E-24  MO5O15       1.00000E-30

BCC_A2.................. E  5.088E-04  0.00E+00  5.09E-04    1.00  0.00E+00  X:
 MO     9.97973E-01  CS     2.02745E-03  O      3.48694E-12


----------------------------------------

[OC parser] Parsed components
  Cs : moles=8.5291e-05, x=0.14382, mu/RT=-16.957, activity=4.3224e-08, ref=SER (default)
  Mo : moles=0.00050774, x=0.85618, mu/RT=-6.5954, activity=0.0013667, ref=SER (default)
  O : moles=9.344e-14, x=0, mu/RT=-26.627, activity=2.7283e-12, ref=GAS

[OC parser] Parsed phases
  Phase condensed : moles=0.0005088, volume=0
    Elements
      Cs = 1.03157e-06
      Mo = 0.000507769
      O = 1.77416e-15
    Species
      BCC_A2 : moles=0.0005088, volume=0
        Cs = 1.03157e-06
        Mo = 0.000507769
        O = 1.77416e-15
  Phase gas : moles=8.426e-05, volume=2.36e-06
    Elements
      Cs = 8.426e-05
      Mo = 2.29357e-16
      O = 9.16665e-14
    Species
      CS : moles=8.27052e-05, volume=0
      CS2 : moles=1.55483e-06, volume=0
      CS2MOO4 : moles=1.34756e-28, volume=0
      CS2O : moles=9.29935e-14, volume=0
      CS2O2 : moles=3.41756e-26, volume=0
      CSO : moles=3.64574e-16, volume=0
      MO : moles=2.33586e-16, volume=0
      MO2 : moles=4.21581e-22, volume=0
      MO2O6 : moles=8.426e-35, volume=0
      MO3O9 : moles=8.426e-35, volume=0
      MO4O12 : moles=8.426e-35, volume=0
      MO5O15 : moles=8.426e-35, volume=0
      MOO : moles=3.45416e-21, volume=0
      MOO2 : moles=8.05758e-26, volume=0
      MOO3 : moles=4.1333e-32, volume=0
      O : moles=1.95918e-20, volume=0
      O2 : moles=6.27183e-28, volume=0
      O3 : moles=8.426e-35, volume=0
      are : moles=0.00151668, volume=0
OpenCalphad attempt for 'matrix' with WARM-START

[OC input] ./OCinput_matrix.OCM
----------------------------------------
r u ./OCoutput_matrix.OCU

set ref o gas * 100000

set c t=1853
set c p=608000
set c n(o)=0.665555
set c n(pu)=0.0940517
set c n(u)=0.240394
c e
c w

save u ./OCoutput_matrix Y

l /out=./OCoutput_matrix.DAT r 1

fin
----------------------------------------

3A unfished preparations for XTDB


Open Calphad (OC) software version   6.106 , linked 2026-04-16
with command line monitor version  73

This program is available with a GNU General Public License.
either version 2 of the License, or any later version.
It includes the General Thermodynamic Package, version GTP-3.31,
Hillert's equilibrium calculation algorithm version HMS-3.0 ,
step/map/plot software version SMP-2.30 using GNUPLOT 5.2 graphics.
Numerical routines are extracted from LAPACK and BLAS and
the assessment procedure uses LMDIF from ANL.

Linked with OpenMp for parallel execution
 Warning, no environment variable OCHOME and no help file
 Working directory is: /home/ecappellari/transparant/sciantix-official/regression/test_JOG_MOX/point_01_r_0p4mm
--->OC6:
Read unformatted file: This is a save file for OC version:     OCF-3.20
Generated:  2026.04.19 21h32

 3E reading unformatted:        15024           0           0
3E Addition type   1, Inden-Hillert magn model for BCC_A2
3E Addition type   1, Inden-Hillert magn model for FCC_A1
 3E no experimental data
 3E no coefficient values saved
 3E Read assessment record
 No coefficients allocated
--->OC6:--->OC6:--->OC6:--->OC6:--->OC6:--->OC6:--->OC6:--->OC6:--->OC6:3Y Removed  1 gridpoints by merging
Gridmin:    7483 points   1.54E-02 s and      14 clockcycles, T= 1853.00
 3Y leaving global_gridmin
Phase change iteration:     4  -C1_MO2_AUTO#2
Equilibrium result:  17 its,  1.7017E-02 s,     17 cc, GS= -4.5931553E+05 J/mol
--->OC6:Equilibrium result:  15 its,  1.3220E-03 s,      1 cc, GS= -4.5931553E+05 J/mol
3Y Testing if any gridpoint is below the calculated equilibrium
--->OC6:--->OC6:
Overwriting previous results on ./OCoutput_matrix.OCU
3E allocating workspace:     122160          (   2160,   10000,    2)
 3E saving            3  symbols as texts
 3E used        12117  words out of       122160  for storing static data
 ceqrecsize not implemented          26
 3E Saving an equilibrium record requires     2854       0 words
 3E not storing unused equilibria from:            2
 3E Saving assessment record
 3E No experimental equilibrium range set
 3E allocating assessment head record          48
 3E no coefficients allocated
 3E no work array (assrec%wopt) allocated
Used    15059 words out of   122160,  12.33% for unformatted memory save
Written workspace      60236 bytes unformatted on ./OCoutput_matrix.OCU
--->OC6:--->OC6:Output on file: ./OCoutput_matrix.DAT
Output unit reset to screen:    6
--->OC6:--->OC6:
[OC output] ./OCoutput_matrix.DAT
----------------------------------------

%%%%%%%%%% OC output written: 2026-04-19  21h32

Output for equilibrium:   1, DEFAULT_EQUILIBRIUM          2026.04.19
Conditions .................................................:
  1:T=1853, 2:P=608000, 3:N(O)=0.665555, 4:N(PU)=.0940517, 5:N(U)=0.240394
 Degrees of freedom are   0

Some global data, reference state SER ......................:
T=   1853.00 K (  1579.85 C), P=  6.0800E+05 Pa, V=  0.0000E+00 m3
N=   1.0000E+00 moles, B=   9.0823E+01 g, RT=   1.5407E+04 J/mol
G= -4.59316E+05 J, G/N=-4.5932E+05 J/mol, H=-3.1556E+05 J, S= 7.758E+01 J/K

Some data for components ...................................:
Component name    Moles      Mole-fr  Chem.pot/RT  Activities  Ref.state
O                 6.6555E-01  0.66555 -1.3090E+01  2.0657E-06  GAS             
PU                9.4052E-02  0.09405 -3.6400E+01  1.5547E-16  SER (default)   
U                 2.4039E-01  0.24039 -3.6586E+01  1.2910E-16  SER (default)   

Some data for phases .......................................:
Name                Status Moles      Volume    Form.Units Cmp/FU dGm/RT  Comp:
C1_MO2#1................ E  1.000E+00  0.00E+00  3.34E-01    2.99  0.00E+00  X:
 O      6.65555E-01  U      2.40394E-01  PU     9.40516E-02


----------------------------------------

[OC parser] Parsed components
  O : moles=0.66555, x=0.66555, mu/RT=-13.09, activity=2.0657e-06, ref=GAS
  Pu : moles=0.094052, x=0.09405, mu/RT=-36.4, activity=1.5547e-16, ref=SER (default)
  U : moles=0.24039, x=0.24039, mu/RT=-36.586, activity=1.291e-16, ref=SER (default)

[OC parser] Parsed phases
  Phase condensed : moles=1, volume=0
    Elements
      O = 0.665555
      Pu = 0.0940516
      U = 0.240394
    Species
      C1_MO2 : moles=1, volume=0
        O = 0.665555
        Pu = 0.0940516
        U = 0.240394
OpenCalphad attempt for 'at grain boundary' with WARM-START

[OC input] ./OCinput_fission_products.OCM
----------------------------------------
r u ./OCoutput_fission_products.OCU

set ref o gas * 100000

set c t=1853
set c p=608000
set c n(cs)=0.000118242
set c n(mo)=0.000639016
set c n(o)=0.999243
c e
set c n(o)=none
set c mu(o)=-403339

c w

save u ./OCoutput_fission_products Y

l /out=./OCoutput_fission_products.DAT r 1

fin
----------------------------------------

3A unfished preparations for XTDB


Open Calphad (OC) software version   6.106 , linked 2026-04-16
with command line monitor version  73

This program is available with a GNU General Public License.
either version 2 of the License, or any later version.
It includes the General Thermodynamic Package, version GTP-3.31,
Hillert's equilibrium calculation algorithm version HMS-3.0 ,
step/map/plot software version SMP-2.30 using GNUPLOT 5.2 graphics.
Numerical routines are extracted from LAPACK and BLAS and
the assessment procedure uses LMDIF from ANL.

Linked with OpenMp for parallel execution
 Warning, no environment variable OCHOME and no help file
 Working directory is: /home/ecappellari/transparant/sciantix-official/regression/test_JOG_MOX/point_01_r_0p4mm
--->OC6:
Read unformatted file: This is a save file for OC version:     OCF-3.20
Generated:  2026.04.19 21h32

 3E reading unformatted:        16527           0           0
3E Addition type   1, Inden-Hillert magn model for BCC_A2
3E Addition type   1, Inden-Hillert magn model for FCC_A1
3E Addition type   1, Inden-Hillert magn model for HCP_A3
 3E no experimental data
 3E no coefficient values saved
 3E Read assessment record
 No coefficients allocated
--->OC6:--->OC6:--->OC6:--->OC6:--->OC6:--->OC6:--->OC6:--->OC6:--->OC6:
Error codes:   4144     0    50
Message: Degrees of freedom not zero

--->OC6:--->OC6:--->OC6:--->OC6:Equilibrium result:   9 its,  1.0920E-03 s,      1 cc, GS= -9.5614122E+01 J/mol
3Y Testing if any gridpoint is below the calculated equilibrium
--->OC6:--->OC6:
Overwriting previous results on ./OCoutput_fission_products.OCU
3E allocating workspace:     123330          (   3330,   10000,    2)
 3E saving            3  symbols as texts
 3E used        12286  words out of       123330  for storing static data
 ceqrecsize not implemented          39
 3E Saving an equilibrium record requires     4188       0 words
 3E not storing unused equilibria from:            2
 3E Saving assessment record
 3E No experimental equilibrium range set
 3E allocating assessment head record          48
 3E no coefficients allocated
 3E no work array (assrec%wopt) allocated
Used    16562 words out of   123330,  13.43% for unformatted memory save
Written workspace      66248 bytes unformatted on ./OCoutput_fission_products.OCU
--->OC6:--->OC6:Output on file: ./OCoutput_fission_products.DAT
Output unit reset to screen:    6
--->OC6:--->OC6:
[OC output] ./OCoutput_fission_products.DAT
----------------------------------------

%%%%%%%%%% OC output written: 2026-04-19  21h32

Output for equilibrium:   1, DEFAULT_EQUILIBRIUM          2026.04.19
Conditions .................................................:
  1:T=1853, 2:P=608000, 3:N(CS)=.000118242, 4:N(MO)=.000639016, 5:MU(O)=
    -403339
 Degrees of freedom are   0

Some global data, reference state SER ......................:
T=   1853.00 K (  1579.85 C), P=  6.0800E+05 Pa, V=  2.8993E-06 m3
N=   7.5726E-04 moles, B=   7.7023E-02 g, RT=   1.5407E+04 J/mol
G= -9.56141E+01 J, G/N=-1.2626E+05 J/mol, H= 4.1648E+01 J, S= 7.408E-02 J/K

Some data for components ...................................:
Component name    Moles      Mole-fr  Chem.pot/RT  Activities  Ref.state
CS                1.1824E-04  0.15614 -1.6841E+01  4.8556E-08  SER (default)   
MO                6.3902E-04  0.84386 -6.5956E+00  1.3663E-03  SER (default)   
O                 2.3960E-13  0.00000 -2.6179E+01  4.2704E-12  GAS             

Some data for phases .......................................:
Name                Status Moles      Volume    Form.Units Cmp/FU dGm/RT  Comp:
GAS..................... E  1.168E-04  2.90E-06  1.14E-04    1.02  0.00E+00  X:
 CS     1.00000E+00  O      2.01989E-09  MO     2.41173E-12
Constitution: There are    18 constituents:
 CS           9.79318E-01  MOO          6.04564E-17  MOO3         1.99562E-27
 CS2          2.06822E-02  MO2          4.44152E-18  MO4O12       1.00000E-30
 CS2O         2.05450E-09  MOO2         2.34231E-21  MO3O9        1.00000E-30
 CSO          7.16996E-12  CS2O2        1.25403E-21  MO2O6        1.00000E-30
 MO           2.46154E-12  O2           1.82366E-23  O3           1.00000E-30
 O            3.42992E-16  CS2MOO4      1.36368E-23  MO5O15       1.00000E-30

BCC_A2.................. E  6.405E-04  0.00E+00  6.40E-04    1.00  0.00E+00  X:
 MO     9.97719E-01  CS     2.28132E-03  O      5.79550E-12


----------------------------------------

[OC parser] Parsed components
  Cs : moles=0.00011824, x=0.15614, mu/RT=-16.841, activity=4.8556e-08, ref=SER (default)
  Mo : moles=0.00063902, x=0.84386, mu/RT=-6.5956, activity=0.0013663, ref=SER (default)
  O : moles=2.396e-13, x=0, mu/RT=-26.179, activity=4.2704e-12, ref=GAS

[OC parser] Parsed phases
  Phase condensed : moles=0.0006405, volume=0
    Elements
      Cs = 1.46119e-06
      Mo = 0.000639039
      O = 3.71202e-15
    Species
      BCC_A2 : moles=0.0006405, volume=0
        Cs = 1.46119e-06
        Mo = 0.000639039
        O = 3.71202e-15
  Phase gas : moles=0.0001168, volume=2.9e-06
    Elements
      Cs = 0.0001168
      Mo = 2.8169e-16
      O = 2.35923e-13
    Species
      CS : moles=0.000114384, volume=0
      CS2 : moles=2.41568e-06, volume=0
      CS2MOO4 : moles=1.59278e-27, volume=0
      CS2O : moles=2.39966e-13, volume=0
      CS2O2 : moles=1.46471e-25, volume=0
      CSO : moles=8.37451e-16, volume=0
      MO : moles=2.87508e-16, volume=0
      MO2 : moles=5.1877e-22, volume=0
      MO2O6 : moles=1.168e-34, volume=0
      MO3O9 : moles=1.168e-34, volume=0
      MO4O12 : moles=1.168e-34, volume=0
      MO5O15 : moles=1.168e-34, volume=0
      MOO : moles=7.06131e-21, volume=0
      MOO2 : moles=2.73582e-25, volume=0
      MOO3 : moles=2.33088e-31, volume=0
      O : moles=4.00615e-20, volume=0
      O2 : moles=2.13003e-27, volume=0
      O3 : moles=1.168e-34, volume=0
      are : moles=0.0021024, volume=0
OpenCalphad attempt for 'matrix' with WARM-START

[OC input] ./OCinput_matrix.OCM
----------------------------------------
r u ./OCoutput_matrix.OCU

set ref o gas * 100000

set c t=1853
set c p=676000
set c n(o)=0.665837
set c n(pu)=0.0936674
set c n(u)=0.240496
c e
c w

save u ./OCoutput_matrix Y

l /out=./OCoutput_matrix.DAT r 1

fin
----------------------------------------

3A unfished preparations for XTDB


Open Calphad (OC) software version   6.106 , linked 2026-04-16
with command line monitor version  73

This program is available with a GNU General Public License.
either version 2 of the License, or any later version.
It includes the General Thermodynamic Package, version GTP-3.31,
Hillert's equilibrium calculation algorithm version HMS-3.0 ,
step/map/plot software version SMP-2.30 using GNUPLOT 5.2 graphics.
Numerical routines are extracted from LAPACK and BLAS and
the assessment procedure uses LMDIF from ANL.

Linked with OpenMp for parallel execution
 Warning, no environment variable OCHOME and no help file
 Working directory is: /home/ecappellari/transparant/sciantix-official/regression/test_JOG_MOX/point_01_r_0p4mm
--->OC6:
Read unformatted file: This is a save file for OC version:     OCF-3.20
Generated:  2026.04.19 21h32

 3E reading unformatted:        15024           0           0
3E Addition type   1, Inden-Hillert magn model for BCC_A2
3E Addition type   1, Inden-Hillert magn model for FCC_A1
 3E no experimental data
 3E no coefficient values saved
 3E Read assessment record
 No coefficients allocated
--->OC6:--->OC6:--->OC6:--->OC6:--->OC6:--->OC6:--->OC6:--->OC6:--->OC6:3Y Removed  1 gridpoints by merging
Gridmin:    7483 points   1.70E-02 s and      14 clockcycles, T= 1853.00
 3Y leaving global_gridmin
Phase change iteration:     4  -C1_MO2_AUTO#2
Equilibrium result:  18 its,  1.8861E-02 s,     19 cc, GS= -4.5927022E+05 J/mol
--->OC6:Equilibrium result:   9 its,  6.3800E-04 s,      1 cc, GS= -4.5927022E+05 J/mol
3Y Testing if any gridpoint is below the calculated equilibrium
--->OC6:--->OC6:
Overwriting previous results on ./OCoutput_matrix.OCU
3E allocating workspace:     122160          (   2160,   10000,    2)
 3E saving            3  symbols as texts
 3E used        12117  words out of       122160  for storing static data
 ceqrecsize not implemented          26
 3E Saving an equilibrium record requires     2854       0 words
 3E not storing unused equilibria from:            2
 3E Saving assessment record
 3E No experimental equilibrium range set
 3E allocating assessment head record          48
 3E no coefficients allocated
 3E no work array (assrec%wopt) allocated
Used    15059 words out of   122160,  12.33% for unformatted memory save
Written workspace      60236 bytes unformatted on ./OCoutput_matrix.OCU
--->OC6:--->OC6:Output on file: ./OCoutput_matrix.DAT
Output unit reset to screen:    6
--->OC6:--->OC6:
[OC output] ./OCoutput_matrix.DAT
----------------------------------------

%%%%%%%%%% OC output written: 2026-04-19  21h32

Output for equilibrium:   1, DEFAULT_EQUILIBRIUM          2026.04.19
Conditions .................................................:
  1:T=1853, 2:P=676000, 3:N(O)=0.665837, 4:N(PU)=.0936674, 5:N(U)=0.240496
 Degrees of freedom are   0

Some global data, reference state SER ......................:
T=   1853.00 K (  1579.85 C), P=  6.7600E+05 Pa, V=  0.0000E+00 m3
N=   1.0000E+00 moles, B=   9.0758E+01 g, RT=   1.5407E+04 J/mol
G= -4.59270E+05 J, G/N=-4.5927E+05 J/mol, H=-3.1563E+05 J, S= 7.752E+01 J/K

Some data for components ...................................:
Component name    Moles      Mole-fr  Chem.pot/RT  Activities  Ref.state
O                 6.6584E-01  0.66584 -1.2795E+01  2.7754E-06  GAS             
PU                9.3667E-02  0.09367 -3.7083E+01  7.8516E-17  SER (default)   
U                 2.4050E-01  0.24050 -3.7284E+01  6.4257E-17  SER (default)   

Some data for phases .......................................:
Name                Status Moles      Volume    Form.Units Cmp/FU dGm/RT  Comp:
C1_MO2#1................ E  1.000E+00  0.00E+00  3.34E-01    2.99  0.00E+00  X:
 O      6.65837E-01  U      2.40496E-01  PU     9.36674E-02


----------------------------------------

[OC parser] Parsed components
  O : moles=0.66584, x=0.66584, mu/RT=-12.795, activity=2.7754e-06, ref=GAS
  Pu : moles=0.093667, x=0.09367, mu/RT=-37.083, activity=7.8516e-17, ref=SER (default)
  U : moles=0.2405, x=0.2405, mu/RT=-37.284, activity=6.4257e-17, ref=SER (default)

[OC parser] Parsed phases
  Phase condensed : moles=1, volume=0
    Elements
      O = 0.665837
      Pu = 0.0936674
      U = 0.240496
    Species
      C1_MO2 : moles=1, volume=0
        O = 0.665837
        Pu = 0.0936674
        U = 0.240496
OpenCalphad attempt for 'at grain boundary' with WARM-START

[OC input] ./OCinput_fission_products.OCM
----------------------------------------
r u ./OCoutput_fission_products.OCU

set ref o gas * 100000

set c t=1853
set c p=676000
set c n(cs)=0.000159012
set c n(mo)=0.000773015
set c n(o)=0.999068
c e
set c n(o)=none
set c mu(o)=-394250

c w

save u ./OCoutput_fission_products Y

l /out=./OCoutput_fission_products.DAT r 1

fin
----------------------------------------

3A unfished preparations for XTDB


Open Calphad (OC) software version   6.106 , linked 2026-04-16
with command line monitor version  73

This program is available with a GNU General Public License.
either version 2 of the License, or any later version.
It includes the General Thermodynamic Package, version GTP-3.31,
Hillert's equilibrium calculation algorithm version HMS-3.0 ,
step/map/plot software version SMP-2.30 using GNUPLOT 5.2 graphics.
Numerical routines are extracted from LAPACK and BLAS and
the assessment procedure uses LMDIF from ANL.

Linked with OpenMp for parallel execution
 Warning, no environment variable OCHOME and no help file
 Working directory is: /home/ecappellari/transparant/sciantix-official/regression/test_JOG_MOX/point_01_r_0p4mm
--->OC6:
Read unformatted file: This is a save file for OC version:     OCF-3.20
Generated:  2026.04.19 21h32

 3E reading unformatted:        16527           0           0
3E Addition type   1, Inden-Hillert magn model for BCC_A2
3E Addition type   1, Inden-Hillert magn model for FCC_A1
3E Addition type   1, Inden-Hillert magn model for HCP_A3
 3E no experimental data
 3E no coefficient values saved
 3E Read assessment record
 No coefficients allocated
--->OC6:--->OC6:--->OC6:--->OC6:--->OC6:--->OC6:--->OC6:--->OC6:--->OC6:
Error codes:   4144     0    50
Message: Degrees of freedom not zero

--->OC6:--->OC6:--->OC6:--->OC6:Equilibrium result:   9 its,  3.5340E-03 s,      3 cc, GS= -1.1955768E+02 J/mol
3Y Testing if any gridpoint is below the calculated equilibrium
--->OC6:--->OC6:
Overwriting previous results on ./OCoutput_fission_products.OCU
3E allocating workspace:     123330          (   3330,   10000,    2)
 3E saving            3  symbols as texts
 3E used        12286  words out of       123330  for storing static data
 ceqrecsize not implemented          39
 3E Saving an equilibrium record requires     4188       0 words
 3E not storing unused equilibria from:            2
 3E Saving assessment record
 3E No experimental equilibrium range set
 3E allocating assessment head record          48
 3E no coefficients allocated
 3E no work array (assrec%wopt) allocated
Used    16562 words out of   123330,  13.43% for unformatted memory save
Written workspace      66248 bytes unformatted on ./OCoutput_fission_products.OCU
--->OC6:--->OC6:Output on file: ./OCoutput_fission_products.DAT
Output unit reset to screen:    6
--->OC6:--->OC6:
[OC output] ./OCoutput_fission_products.DAT
----------------------------------------

%%%%%%%%%% OC output written: 2026-04-19  21h32

Output for equilibrium:   1, DEFAULT_EQUILIBRIUM          2026.04.19
Conditions .................................................:
  1:T=1853, 2:P=676000, 3:N(CS)=.000159012, 4:N(MO)=.000773015, 5:MU(O)=
    -394250
 Degrees of freedom are   0

Some global data, reference state SER ......................:
T=   1853.00 K (  1579.85 C), P=  6.7600E+05 Pa, V=  3.4992E-06 m3
N=   9.3203E-04 moles, B=   9.5297E-02 g, RT=   1.5407E+04 J/mol
G= -1.19558E+02 J, G/N=-1.2828E+05 J/mol, H= 5.2084E+01 J, S= 9.263E-02 J/K

Some data for components ...................................:
Component name    Moles      Mole-fr  Chem.pot/RT  Activities  Ref.state
CS                1.5901E-04  0.17061 -1.6737E+01  5.3865E-08  SER (default)   
MO                7.7302E-04  0.82939 -6.5959E+00  1.3660E-03  SER (default)   
O                 6.7471E-13  0.00000 -2.5589E+01  7.7033E-12  GAS             

Some data for phases .......................................:
Name                Status Moles      Volume    Form.Units Cmp/FU dGm/RT  Comp:
GAS..................... E  1.570E-04  3.50E-06  1.54E-04    1.02  0.00E+00  X:
 CS     1.00000E+00  O      4.24178E-09  MO     2.16395E-12
Constitution: There are    18 constituents:
 CS           9.77108E-01  MOO          1.03399E-16  MOO3         1.23483E-26
 CS2          2.28917E-02  MO2          3.99274E-18  MO3O9        1.00000E-30
 CS2O         4.32527E-09  MOO2         7.61987E-21  MO2O6        1.00000E-30
 CSO          1.36070E-11  CS2O2        5.02163E-21  MO4O12       1.00000E-30
 MO           2.21337E-12  CS2MOO4      1.97512E-22  O3           1.00000E-30
 O            5.86770E-16  O2           5.93409E-23  MO5O15       1.00000E-30

BCC_A2.................. E  7.750E-04  0.00E+00  7.75E-04    1.00  0.00E+00  X:
 MO     9.97465E-01  CS     2.53490E-03  O      1.10312E-11


----------------------------------------

[OC parser] Parsed components
  Cs : moles=0.00015901, x=0.17061, mu/RT=-16.737, activity=5.3865e-08, ref=SER (default)
  Mo : moles=0.00077302, x=0.82939, mu/RT=-6.5959, activity=0.001366, ref=SER (default)
  O : moles=6.7471e-13, x=0, mu/RT=-25.589, activity=7.7033e-12, ref=GAS

[OC parser] Parsed phases
  Phase condensed : moles=0.000775, volume=0
    Elements
      Cs = 1.96455e-06
      Mo = 0.000773035
      O = 8.54918e-15
    Species
      BCC_A2 : moles=0.000775, volume=0
        Cs = 1.96455e-06
        Mo = 0.000773035
        O = 8.54918e-15
  Phase gas : moles=0.000157, volume=3.5e-06
    Elements
      Cs = 0.000157
      Mo = 3.3974e-16
      O = 6.65959e-13
    Species
      CS : moles=0.000153406, volume=0
      CS2 : moles=3.594e-06, volume=0
      CS2MOO4 : moles=3.10094e-26, volume=0
      CS2O : moles=6.79067e-13, volume=0
      CS2O2 : moles=7.88396e-25, volume=0
      CSO : moles=2.1363e-15, volume=0
      MO : moles=3.47499e-16, volume=0
      MO2 : moles=6.2686e-22, volume=0
      MO2O6 : moles=1.57e-34, volume=0
      MO3O9 : moles=1.57e-34, volume=0
      MO4O12 : moles=1.57e-34, volume=0
      MO5O15 : moles=1.57e-34, volume=0
      MOO : moles=1.62336e-20, volume=0
      MOO2 : moles=1.19632e-24, volume=0
      MOO3 : moles=1.93868e-30, volume=0
      O : moles=9.21229e-20, volume=0
      O2 : moles=9.31652e-27, volume=0
      O3 : moles=1.57e-34, volume=0
      are : moles=0.002826, volume=0
OpenCalphad attempt for 'matrix' with WARM-START

[OC input] ./OCinput_matrix.OCM
----------------------------------------
r u ./OCoutput_matrix.OCU

set ref o gas * 100000

set c t=1853
set c p=744000
set c n(o)=0.66612
set c n(pu)=0.0932827
set c n(u)=0.240598
c e
c w

save u ./OCoutput_matrix Y

l /out=./OCoutput_matrix.DAT r 1

fin
----------------------------------------

3A unfished preparations for XTDB


Open Calphad (OC) software version   6.106 , linked 2026-04-16
with command line monitor version  73

This program is available with a GNU General Public License.
either version 2 of the License, or any later version.
It includes the General Thermodynamic Package, version GTP-3.31,
Hillert's equilibrium calculation algorithm version HMS-3.0 ,
step/map/plot software version SMP-2.30 using GNUPLOT 5.2 graphics.
Numerical routines are extracted from LAPACK and BLAS and
the assessment procedure uses LMDIF from ANL.

Linked with OpenMp for parallel execution
 Warning, no environment variable OCHOME and no help file
 Working directory is: /home/ecappellari/transparant/sciantix-official/regression/test_JOG_MOX/point_01_r_0p4mm
--->OC6:
Read unformatted file: This is a save file for OC version:     OCF-3.20
Generated:  2026.04.19 21h32

[...]
 3E not storing unused equilibria from:            2
 3E Saving assessment record
 3E No experimental equilibrium range set
 3E allocating assessment head record          48
 3E no coefficients allocated
 3E no work array (assrec%wopt) allocated
Used    15059 words out of   122160,  12.33% for unformatted memory save
Written workspace      60236 bytes unformatted on ./OCoutput_matrix.OCU
--->OC6:--->OC6:Output on file: ./OCoutput_matrix.DAT
Output unit reset to screen:    6
--->OC6:--->OC6:
[OC output] ./OCoutput_matrix.DAT
----------------------------------------

%%%%%%%%%% OC output written: 2026-04-19  21h32

Output for equilibrium:   1, DEFAULT_EQUILIBRIUM          2026.04.19
Conditions .................................................:
  1:T=1853, 2:P=7000000, 3:N(O)=0.693186, 4:N(PU)=.05644, 5:N(U)=0.250374
 Degrees of freedom are   0

Some global data, reference state SER ......................:
T=   1853.00 K (  1579.85 C), P=  7.0000E+06 Pa, V=  0.0000E+00 m3
N=   1.0000E+00 moles, B=   8.4462E+01 g, RT=   1.5407E+04 J/mol
G= -4.42846E+05 J, G/N=-4.4285E+05 J/mol, H=-3.0218E+05 J, S= 7.591E+01 J/K

Some data for components ...................................:
Component name    Moles      Mole-fr  Chem.pot/RT  Activities  Ref.state
O                 6.9319E-01  0.69319 -2.4244E+00  8.8532E-02  GAS             
PU                5.6440E-02  0.05644 -5.9792E+01  1.0785E-26  SER (default)   
U                 2.5037E-01  0.25037 -6.1047E+01  3.0724E-27  SER (default)   

Some data for phases .......................................:
Name                Status Moles      Volume    Form.Units Cmp/FU dGm/RT  Comp:
C1_MO2#1................ E  7.926E-01  0.00E+00  2.50E-01    3.17  0.00E+00  X:
 O      6.84266E-01  U      2.44525E-01  PU     7.12092E-02

U3O8_S4................. E  2.074E-01  0.00E+00  1.89E-02   11.00  0.00E+00  X:
 O      7.27273E-01  U      2.72727E-01  PU     0.00000E+00


----------------------------------------

[OC parser] Parsed components
  O : moles=0.69319, x=0.69319, mu/RT=-2.4244, activity=0.088532, ref=GAS
  Pu : moles=0.05644, x=0.05644, mu/RT=-59.792, activity=1.0785e-26, ref=SER (default)
  U : moles=0.25037, x=0.25037, mu/RT=-61.047, activity=3.0724e-27, ref=SER (default)

[OC parser] Parsed phases
  Phase condensed : moles=1, volume=0
    Elements
      O = 0.693186
      Pu = 0.0564404
      U = 0.250374
    Species
      C1_MO2 : moles=0.7926, volume=0
        O = 0.542349
        Pu = 0.0564404
        U = 0.193811
      U3O8_S4 : moles=0.2074, volume=0
        O = 0.150836
        Pu = 0
        U = 0.0565636
OpenCalphad attempt for 'at grain boundary' with WARM-START

[OC input] ./OCinput_fission_products.OCM
----------------------------------------
r u ./OCoutput_fission_products.OCU

set ref o gas * 100000

set c t=1853
set c p=7e+06
set c n(cs)=0.00960509
set c n(mo)=0.0134785
set c n(o)=0.976916
c e
set c n(o)=none
set c mu(o)=-74702.5

c w

save u ./OCoutput_fission_products Y

l /out=./OCoutput_fission_products.DAT r 1

fin
----------------------------------------

3A unfished preparations for XTDB


Open Calphad (OC) software version   6.106 , linked 2026-04-16
with command line monitor version  73

This program is available with a GNU General Public License.
either version 2 of the License, or any later version.
It includes the General Thermodynamic Package, version GTP-3.31,
Hillert's equilibrium calculation algorithm version HMS-3.0 ,
step/map/plot software version SMP-2.30 using GNUPLOT 5.2 graphics.
Numerical routines are extracted from LAPACK and BLAS and
the assessment procedure uses LMDIF from ANL.

Linked with OpenMp for parallel execution
 Warning, no environment variable OCHOME and no help file
 Working directory is: /home/ecappellari/transparant/sciantix-official/regression/test_JOG_MOX/point_01_r_0p4mm
--->OC6:
Read unformatted file: This is a save file for OC version:     OCF-3.20
Generated:  2026.04.19 21h32

 3E reading unformatted:        16742           0           0
3E Addition type   1, Inden-Hillert magn model for BCC_A2
3E Addition type   1, Inden-Hillert magn model for FCC_A1
3E Addition type   1, Inden-Hillert magn model for HCP_A3
 3E no experimental data
 3E no coefficient values saved
 3E Read assessment record
 No coefficients allocated
--->OC6:--->OC6:--->OC6:--->OC6:--->OC6:--->OC6:--->OC6:--->OC6:--->OC6:
Error codes:   4144     0    50
Message: Degrees of freedom not zero

--->OC6:--->OC6:--->OC6:--->OC6:Equilibrium result:  31 its,  2.5840E-03 s,      2 cc, GS= -2.1245154E+04 J/mol
3Y Testing if any gridpoint is below the calculated equilibrium
--->OC6:--->OC6:
Overwriting previous results on ./OCoutput_fission_products.OCU
3E allocating workspace:     123330          (   3330,   10000,    2)
 3E saving            3  symbols as texts
 3E used        12291  words out of       123330  for storing static data
 ceqrecsize not implemented          40
 3E Saving an equilibrium record requires     4398       0 words
 3E not storing unused equilibria from:            2
 3E Saving assessment record
 3E No experimental equilibrium range set
 3E allocating assessment head record          48
 3E no coefficients allocated
 3E no work array (assrec%wopt) allocated
Used    16777 words out of   123330,  13.60% for unformatted memory save
Written workspace      67108 bytes unformatted on ./OCoutput_fission_products.OCU
--->OC6:--->OC6:Output on file: ./OCoutput_fission_products.DAT
Output unit reset to screen:    6
--->OC6:--->OC6:
[OC output] ./OCoutput_fission_products.DAT
----------------------------------------

%%%%%%%%%% OC output written: 2026-04-19  21h32

Output for equilibrium:   1, DEFAULT_EQUILIBRIUM          2026.04.19
Conditions .................................................:
  1:T=1853, 2:P=7000000, 3:N(CS)=.00960509, 4:N(MO)=.0134785, 5:MU(O)=
    -74702.5
 Degrees of freedom are   0

Some global data, reference state SER ......................:
T=   1853.00 K (  1579.85 C), P=  7.0000E+06 Pa, V=  0.0000E+00 m3
N=   6.8323E-02 moles, B=   3.2935E+00 g, RT=   1.5407E+04 J/mol
G= -2.12452E+04 J, G/N=-3.1095E+05 J/mol, H=-1.0516E+04 J, S= 5.790E+00 J/K

Some data for components ...................................:
Component name    Moles      Mole-fr  Chem.pot/RT  Activities  Ref.state
CS                9.6051E-03  0.14058 -3.2207E+01  1.0294E-14  SER (default)   
MO                1.3478E-02  0.19728 -2.2391E+01  1.8869E-10  SER (default)   
O                 4.5239E-02  0.66214 -4.8487E+00  7.8388E-03  GAS             

Some data for phases .......................................:
Name                Status Moles      Volume    Form.Units Cmp/FU dGm/RT  Comp:
LIQUID#1................ E  6.832E-02  0.00E+00  1.35E-02    5.07  0.00E+00  X:
 O      6.62139E-01  MO     1.97277E-01  CS     1.40584E-01


----------------------------------------

[OC parser] Parsed components
  Cs : moles=0.0096051, x=0.14058, mu/RT=-32.207, activity=1.0294e-14, ref=SER (default)
  Mo : moles=0.013478, x=0.19728, mu/RT=-22.391, activity=1.8869e-10, ref=SER (default)
  O : moles=0.045239, x=0.66214, mu/RT=-4.8487, activity=0.0078388, ref=GAS

[OC parser] Parsed phases
  Phase liquid : moles=0.06832, volume=0
    Elements
      Cs = 0.0096047
      Mo = 0.013478
      O = 0.0452373
OpenCalphad attempt for 'matrix' with WARM-START

[OC input] ./OCinput_matrix.OCM
----------------------------------------
r u ./OCoutput_matrix.OCU

set ref o gas * 100000

set c t=1853
set c p=7e+06
set c n(o)=0.693186
set c n(pu)=0.05644
set c n(u)=0.250374
c e
c w

save u ./OCoutput_matrix Y

l /out=./OCoutput_matrix.DAT r 1

fin
----------------------------------------

3A unfished preparations for XTDB


Open Calphad (OC) software version   6.106 , linked 2026-04-16
with command line monitor version  73

This program is available with a GNU General Public License.
either version 2 of the License, or any later version.
It includes the General Thermodynamic Package, version GTP-3.31,
Hillert's equilibrium calculation algorithm version HMS-3.0 ,
step/map/plot software version SMP-2.30 using GNUPLOT 5.2 graphics.
Numerical routines are extracted from LAPACK and BLAS and
the assessment procedure uses LMDIF from ANL.

Linked with OpenMp for parallel execution
 Warning, no environment variable OCHOME and no help file
 Working directory is: /home/ecappellari/transparant/sciantix-official/regression/test_JOG_MOX/point_01_r_0p4mm
--->OC6:
Read unformatted file: This is a save file for OC version:     OCF-3.20
Generated:  2026.04.19 21h32

 3E reading unformatted:        15024           0           0
3E Addition type   1, Inden-Hillert magn model for BCC_A2
3E Addition type   1, Inden-Hillert magn model for FCC_A1
 3E no experimental data
 3E no coefficient values saved
 3E Read assessment record
 No coefficients allocated
--->OC6:--->OC6:--->OC6:--->OC6:--->OC6:--->OC6:--->OC6:--->OC6:--->OC6:Gridmin:    7483 points   1.55E-02 s and      14 clockcycles, T= 1853.00
 3Y leaving global_gridmin
Phase change iteration:     4  -C1_MO2_AUTO#2
Equilibrium result:  23 its,  1.7282E-02 s,     18 cc, GS= -4.4284616E+05 J/mol
--->OC6:Equilibrium result:  10 its,  6.8700E-04 s,      1 cc, GS= -4.4284616E+05 J/mol
3Y Testing if any gridpoint is below the calculated equilibrium
--->OC6:--->OC6:
Overwriting previous results on ./OCoutput_matrix.OCU
3E allocating workspace:     122160          (   2160,   10000,    2)
 3E saving            3  symbols as texts
 3E used        12117  words out of       122160  for storing static data
 ceqrecsize not implemented          26
 3E Saving an equilibrium record requires     2854       0 words
 3E not storing unused equilibria from:            2
 3E Saving assessment record
 3E No experimental equilibrium range set
 3E allocating assessment head record          48
 3E no coefficients allocated
 3E no work array (assrec%wopt) allocated
Used    15059 words out of   122160,  12.33% for unformatted memory save
Written workspace      60236 bytes unformatted on ./OCoutput_matrix.OCU
--->OC6:--->OC6:Output on file: ./OCoutput_matrix.DAT
Output unit reset to screen:    6
--->OC6:--->OC6:
[OC output] ./OCoutput_matrix.DAT
----------------------------------------

%%%%%%%%%% OC output written: 2026-04-19  21h32

Output for equilibrium:   1, DEFAULT_EQUILIBRIUM          2026.04.19
Conditions .................................................:
  1:T=1853, 2:P=7000000, 3:N(O)=0.693186, 4:N(PU)=.05644, 5:N(U)=0.250374
 Degrees of freedom are   0

Some global data, reference state SER ......................:
T=   1853.00 K (  1579.85 C), P=  7.0000E+06 Pa, V=  0.0000E+00 m3
N=   1.0000E+00 moles, B=   8.4462E+01 g, RT=   1.5407E+04 J/mol
G= -4.42846E+05 J, G/N=-4.4285E+05 J/mol, H=-3.0218E+05 J, S= 7.591E+01 J/K

Some data for components ...................................:
Component name    Moles      Mole-fr  Chem.pot/RT  Activities  Ref.state
O                 6.9319E-01  0.69319 -2.4244E+00  8.8532E-02  GAS             
PU                5.6440E-02  0.05644 -5.9792E+01  1.0785E-26  SER (default)   
U                 2.5037E-01  0.25037 -6.1047E+01  3.0724E-27  SER (default)   

Some data for phases .......................................:
Name                Status Moles      Volume    Form.Units Cmp/FU dGm/RT  Comp:
C1_MO2#1................ E  7.926E-01  0.00E+00  2.50E-01    3.17  0.00E+00  X:
 O      6.84266E-01  U      2.44525E-01  PU     7.12092E-02

U3O8_S4................. E  2.074E-01  0.00E+00  1.89E-02   11.00  0.00E+00  X:
 O      7.27273E-01  U      2.72727E-01  PU     0.00000E+00


----------------------------------------

[OC parser] Parsed components
  O : moles=0.69319, x=0.69319, mu/RT=-2.4244, activity=0.088532, ref=GAS
  Pu : moles=0.05644, x=0.05644, mu/RT=-59.792, activity=1.0785e-26, ref=SER (default)
  U : moles=0.25037, x=0.25037, mu/RT=-61.047, activity=3.0724e-27, ref=SER (default)

[OC parser] Parsed phases
  Phase condensed : moles=1, volume=0
    Elements
      O = 0.693186
      Pu = 0.0564404
      U = 0.250374
    Species
      C1_MO2 : moles=0.7926, volume=0
        O = 0.542349
        Pu = 0.0564404
        U = 0.193811
      U3O8_S4 : moles=0.2074, volume=0
        O = 0.150836
        Pu = 0
        U = 0.0565636
OpenCalphad attempt for 'at grain boundary' with WARM-START

[OC input] ./OCinput_fission_products.OCM
----------------------------------------
r u ./OCoutput_fission_products.OCU

set ref o gas * 100000

set c t=1853
set c p=7e+06
set c n(cs)=0.00960509
set c n(mo)=0.0134785
set c n(o)=0.976916
c e
set c n(o)=none
set c mu(o)=-74702.5

c w

save u ./OCoutput_fission_products Y

l /out=./OCoutput_fission_products.DAT r 1

fin
----------------------------------------

3A unfished preparations for XTDB


Open Calphad (OC) software version   6.106 , linked 2026-04-16
with command line monitor version  73

This program is available with a GNU General Public License.
either version 2 of the License, or any later version.
It includes the General Thermodynamic Package, version GTP-3.31,
Hillert's equilibrium calculation algorithm version HMS-3.0 ,
step/map/plot software version SMP-2.30 using GNUPLOT 5.2 graphics.
Numerical routines are extracted from LAPACK and BLAS and
the assessment procedure uses LMDIF from ANL.

Linked with OpenMp for parallel execution
 Warning, no environment variable OCHOME and no help file
 Working directory is: /home/ecappellari/transparant/sciantix-official/regression/test_JOG_MOX/point_01_r_0p4mm
--->OC6:
Read unformatted file: This is a save file for OC version:     OCF-3.20
Generated:  2026.04.19 21h32

 3E reading unformatted:        16742           0           0
3E Addition type   1, Inden-Hillert magn model for BCC_A2
3E Addition type   1, Inden-Hillert magn model for FCC_A1
3E Addition type   1, Inden-Hillert magn model for HCP_A3
 3E no experimental data
 3E no coefficient values saved
 3E Read assessment record
 No coefficients allocated
--->OC6:--->OC6:--->OC6:--->OC6:--->OC6:--->OC6:--->OC6:--->OC6:--->OC6:
Error codes:   4144     0    50
Message: Degrees of freedom not zero

--->OC6:--->OC6:--->OC6:--->OC6:Equilibrium result:  41 its,  3.1740E-03 s,      3 cc, GS= -2.1245138E+04 J/mol
3Y Testing if any gridpoint is below the calculated equilibrium
--->OC6:--->OC6:
Overwriting previous results on ./OCoutput_fission_products.OCU
3E allocating workspace:     123330          (   3330,   10000,    2)
 3E saving            3  symbols as texts
 3E used        12291  words out of       123330  for storing static data
 ceqrecsize not implemented          40
 3E Saving an equilibrium record requires     4398       0 words
 3E not storing unused equilibria from:            2
 3E Saving assessment record
 3E No experimental equilibrium range set
 3E allocating assessment head record          48
 3E no coefficients allocated
 3E no work array (assrec%wopt) allocated
Used    16777 words out of   123330,  13.60% for unformatted memory save
Written workspace      67108 bytes unformatted on ./OCoutput_fission_products.OCU
--->OC6:--->OC6:Output on file: ./OCoutput_fission_products.DAT
Output unit reset to screen:    6
--->OC6:--->OC6:
[OC output] ./OCoutput_fission_products.DAT
----------------------------------------

%%%%%%%%%% OC output written: 2026-04-19  21h32

Output for equilibrium:   1, DEFAULT_EQUILIBRIUM          2026.04.19
Conditions .................................................:
  1:T=1853, 2:P=7000000, 3:N(CS)=.00960509, 4:N(MO)=.0134785, 5:MU(O)=
    -74702.5
 Degrees of freedom are   0

Some global data, reference state SER ......................:
T=   1853.00 K (  1579.85 C), P=  7.0000E+06 Pa, V=  0.0000E+00 m3
N=   6.8323E-02 moles, B=   3.2935E+00 g, RT=   1.5407E+04 J/mol
G= -2.12451E+04 J, G/N=-3.1095E+05 J/mol, H=-1.0516E+04 J, S= 5.790E+00 J/K

Some data for components ...................................:
Component name    Moles      Mole-fr  Chem.pot/RT  Activities  Ref.state
CS                9.6051E-03  0.14058 -3.2207E+01  1.0294E-14  SER (default)   
MO                1.3478E-02  0.19728 -2.2391E+01  1.8869E-10  SER (default)   
O                 4.5239E-02  0.66214 -4.8487E+00  7.8388E-03  GAS             

Some data for phases .......................................:
Name                Status Moles      Volume    Form.Units Cmp/FU dGm/RT  Comp:
LIQUID#1................ E  6.832E-02  0.00E+00  1.35E-02    5.07  0.00E+00  X:
 O      6.62139E-01  MO     1.97277E-01  CS     1.40584E-01


----------------------------------------

[OC parser] Parsed components
  Cs : moles=0.0096051, x=0.14058, mu/RT=-32.207, activity=1.0294e-14, ref=SER (default)
  Mo : moles=0.013478, x=0.19728, mu/RT=-22.391, activity=1.8869e-10, ref=SER (default)
  O : moles=0.045239, x=0.66214, mu/RT=-4.8487, activity=0.0078388, ref=GAS

[OC parser] Parsed phases
  Phase liquid : moles=0.06832, volume=0
    Elements
      Cs = 0.0096047
      Mo = 0.013478
      O = 0.0452373
Using current directory.
STOP Au revoir
STOP Au revoir
STOP Au revoir
STOP Au revoir
STOP Au revoir
STOP Au revoir
STOP Au revoir
STOP Au revoir
STOP Au revoir
STOP Au revoir
STOP Au revoir
STOP Au revoir
STOP Au revoir
STOP Au revoir
STOP Au revoir
STOP Au revoir
STOP Au revoir
STOP Au revoir
STOP Au revoir
STOP Au revoir
STOP Au revoir
STOP Au revoir
STOP Au revoir
STOP Au revoir
STOP Au revoir
STOP Au revoir
STOP Au revoir
STOP Au revoir
STOP Au revoir
STOP Au revoir
STOP Au revoir
STOP Au revoir
STOP Au revoir
STOP Au revoir
STOP Au revoir
STOP Au revoir
STOP Au revoir
STOP Au revoir
STOP Au revoir
STOP Au revoir
STOP Au revoir
STOP Au revoir
STOP Au revoir
STOP Au revoir
STOP Au revoir
STOP Au revoir
STOP Au revoir
STOP Au revoir
STOP Au revoir
STOP Au revoir
STOP Au revoir
STOP Au revoir
STOP Au revoir
STOP Au revoir
STOP Au revoir
STOP Au revoir
STOP Au revoir
STOP Au revoir
STOP Au revoir
STOP Au revoir
STOP Au revoir
STOP Au revoir
STOP Au revoir
STOP Au revoir
STOP Au revoir
STOP Au revoir
STOP Au revoir
STOP Au revoir
STOP Au revoir
STOP Au revoir
STOP Au revoir
STOP Au revoir
STOP Au revoir
STOP Au revoir
STOP Au revoir
STOP Au revoir
STOP Au revoir
STOP Au revoir
STOP Au revoir
STOP Au revoir
STOP Au revoir
STOP Au revoir
STOP Au revoir
STOP Au revoir
STOP Au revoir
STOP Au revoir
STOP Au revoir
STOP Au revoir
STOP Au revoir
STOP Au revoir
STOP Au revoir
STOP Au revoir
STOP Au revoir
STOP Au revoir
STOP Au revoir
STOP Au revoir
STOP Au revoir
STOP Au revoir
STOP Au revoir
STOP Au revoir
STOP Au revoir
STOP Au revoir
STOP Au revoir
STOP Au revoir
STOP Au revoir
STOP Au revoir
STOP Au revoir
STOP Au revoir
STOP Au revoir
STOP Au revoir
STOP Au revoir
STOP Au revoir
STOP Au revoir
STOP Au revoir
STOP Au revoir
STOP Au revoir
STOP Au revoir
STOP Au revoir
STOP Au revoir
STOP Au revoir
STOP Au revoir
STOP Au revoir
STOP Au revoir
STOP Au revoir
STOP Au revoir
STOP Au revoir
STOP Au revoir
STOP Au revoir
STOP Au revoir
STOP Au revoir
STOP Au revoir
STOP Au revoir
STOP Au revoir
STOP Au revoir
STOP Au revoir
STOP Au revoir
STOP Au revoir
STOP Au revoir
STOP Au revoir
STOP Au revoir
STOP Au revoir
STOP Au revoir
STOP Au revoir
STOP Au revoir
STOP Au revoir
STOP Au revoir
STOP Au revoir
STOP Au revoir
STOP Au revoir
STOP Au revoir
STOP Au revoir
STOP Au revoir
STOP Au revoir
STOP Au revoir
STOP Au revoir
STOP Au revoir
STOP Au revoir
STOP Au revoir
STOP Au revoir
STOP Au revoir
STOP Au revoir
STOP Au revoir
STOP Au revoir
STOP Au revoir
STOP Au revoir
STOP Au revoir
STOP Au revoir
STOP Au revoir
STOP Au revoir
STOP Au revoir
STOP Au revoir
STOP Au revoir
STOP Au revoir
STOP Au revoir
STOP Au revoir
STOP Au revoir
STOP Au revoir
STOP Au revoir
STOP Au revoir
STOP Au revoir
STOP Au revoir
STOP Au revoir
STOP Au revoir
STOP Au revoir
STOP Au revoir
STOP Au revoir
STOP Au revoir
STOP Au revoir
STOP Au revoir
STOP Au revoir
STOP Au revoir
STOP Au revoir
STOP Au revoir
STOP Au revoir
STOP Au revoir
STOP Au revoir
STOP Au revoir
STOP Au revoir
STOP Au revoir
STOP Au revoir
STOP Au revoir
STOP Au revoir
STOP Au revoir
