Use ./sciantix.x ../input_path/ in the working directory
OpenCalphad attempt for 'matrix' with WARM-START

[OC input] ./OCinput_matrix.OCM
----------------------------------------
@$ Initialize variables:
r t /home/ecappellari/transparant/opencalphad/data/O-Pu-UPaper o pu u

set ref o gas * 100000

set c t=1560
set c p=200000
set c n(o)=0.663866
set c n(pu)=0.0735683
set c n(u)=0.262566
c e
c w

save u ./OCoutput_matrix Y

l /out=./OCoutput_matrix.DAT r 1

fin
----------------------------------------

3A unfished preparations for XTDB


Open Calphad (OC) software version   6.106 , linked 2026-04-16
with command line monitor version  73

This program is available with a GNU General Public License.
either version 2 of the License, or any later version.
It includes the General Thermodynamic Package, version GTP-3.31,
Hillert's equilibrium calculation algorithm version HMS-3.0 ,
step/map/plot software version SMP-2.30 using GNUPLOT 5.2 graphics.
Numerical routines are extracted from LAPACK and BLAS and
the assessment procedure uses LMDIF from ANL.

Linked with OpenMp for parallel execution
 Warning, no environment variable OCHOME and no help file
 Working directory is: /home/ecappellari/transparant/sciantix-official/regression/test_JOG_MOX/point_06_r_1p7mm
--->OC6:--->OC6: 3E Database file extention is: ".tdb"

This database has information to users, please read carefully
Database modified by Pauline Fouquet-Metivier et al, Calphad (2022)
Only for the liquid phase of Pu-O and U-Pu-O systems

 ELEMENT /-   ELECTRON_GAS              0.0000E+00  0.0000E+00  0.0000E+00!

Database has  5 elements: O  PU U  AR N 
Give the elements to select, finish with empty line
Selected  3 elements: O  PU U 
Select elements /no more/:Selected  3 elements: O  PU U 
3E reading database file: /home/ecappellari/transparant/opencalphad/data/O-Pu-UPaper.TDB
 3B insering interaction before existing F

Out of   115 model parameters   108 have been entered


There are    17 bibliographic references
REF161          '*** Not set by database or user'
REF178          '*** Not set by database or user'
REF175          '*** Not set by database or user'
REF176          '*** Not set by database or user'
REF177          '*** Not set by database or user'
REF203          'O1PU1<G> T.C.R.A.S. Class: 6, from SSUB, id to Tbase'
REF204          'O2PU1<G> T.C.R.A.S. Class: 7 PLUTONIUM DIOXIDE <GAS>, from 
                 SSUB, id to Tbase'
REF209          'O1U1<G> T.C.R.A.S Class: 6 Data provided by T.C.R.A.S. in 
                 2000, from SSUB, different of Tbase'
REF210          'O2U1<G> T.C.R.A.S. Class: 6 URANIUM DIOXIDE <GAS>, from 
                 SSUB, slightly different of Tbase'
REF211          'O3U1<G> T.C.R.A.S Class: 6 Data provided by T.C.R.A.S. in 
                 2000, from SSUB, different of Tbase'
REF10           'A T Dinsdale, SGTE Data for Pure Elements, Calphad 15(1991)4 
                 p 317-425; also in NPL Report DMA(A)195 Rev. August 1990'
FOUQ            'P. Fouquet-Metivier et al, Calphad (2022)'
REF412          'C. Gueneau, N. Dupin, B. Sundman, C. Martial, J.-C. Dumas, 
                 S. Gosse, S. Chatain, F. De Bruycker, D. Manara, R.J.M. 
                 Konings, J. Nucl. Mat. 419 (1-3), 145-167 (2011); C-O-Pu-U'
REF37           'M. Kurata, Calphad, 23 (3-4), 305-337 1999'
REF115          '*** Not set by database or user'
REF92           'N. Dupin, Contrat CEA 4000294936/P5B73 Np-Pu Fuelbase, 
                 february REF115'
REF137          '*** Not set by database or user'

--->OC6:--->OC6:--->OC6:--->OC6:--->OC6:--->OC6:--->OC6:--->OC6:3Y Removed  1 gridpoints by merging
 3Y Composition set(s) created:            1
Gridmin:    7483 points   9.71E-03 s and       8 clockcycles, T= 1560.00
 3Y leaving global_gridmin
Phase change iteration:     4  -C1_MO2_AUTO#2
Equilibrium result:  17 its,  1.0527E-02 s,     11 cc, GS= -4.3749974E+05 J/mol
--->OC6:Equilibrium result:   9 its,  3.6100E-04 s,      0 cc, GS= -4.3749974E+05 J/mol
3Y Testing if any gridpoint is below the calculated equilibrium
--->OC6:--->OC6:3E allocating workspace:     122160          (   2160,   10000,    2)
 3E saving            3  symbols as texts
 3E used        12117  words out of       122160  for storing static data
 ceqrecsize not implemented          26
 3E Saving an equilibrium record requires     2854       0 words
 3E not storing unused equilibria from:            2
 3E Saving assessment record
 3E No experimental equilibrium range set
 3E allocating assessment head record          48
 3E no coefficients allocated
 3E no work array (assrec%wopt) allocated
Used    15059 words out of   122160,  12.33% for unformatted memory save
Written workspace      60236 bytes unformatted on ./OCoutput_matrix.OCU
--->OC6:--->OC6:Output on file: ./OCoutput_matrix.DAT
Output unit reset to screen:    6
--->OC6:--->OC6:
[OC output] ./OCoutput_matrix.DAT
----------------------------------------

%%%%%%%%%% OC output written: 2026-04-20  11h29

Output for equilibrium:   1, DEFAULT_EQUILIBRIUM          2026.04.20
Conditions .................................................:
  1:T=1560, 2:P=200000, 3:N(O)=0.663866, 4:N(PU)=.0735683, 5:N(U)=0.262566
 Degrees of freedom are   0

Some global data, reference state SER ......................:
T=   1560.00 K (  1286.85 C), P=  2.0000E+05 Pa, V=  0.0000E+00 m3
N=   1.0000E+00 moles, B=   9.1075E+01 g, RT=   1.2971E+04 J/mol
G= -4.37500E+05 J, G/N=-4.3750E+05 J/mol, H=-3.2504E+05 J, S= 7.209E+01 J/K

Some data for components ...................................:
Component name    Moles      Mole-fr  Chem.pot/RT  Activities  Ref.state
O                 6.6387E-01  0.66387 -1.9791E+01  2.5396E-09  GAS             
PU                7.3568E-02  0.07357 -3.4611E+01  9.3038E-16  SER (default)   
U                 2.6257E-01  0.26257 -3.4317E+01  1.2487E-15  SER (default)   

Some data for phases .......................................:
Name                Status Moles      Volume    Form.Units Cmp/FU dGm/RT  Comp:
C1_MO2#1................ E  1.000E+00  0.00E+00  3.36E-01    2.98  0.00E+00  X:
 O      6.63866E-01  U      2.62566E-01  PU     7.35683E-02


----------------------------------------

[OC parser] Parsed components
  O : moles=0.66387, x=0.66387, mu/RT=-19.791, activity=2.5396e-09, ref=GAS
  Pu : moles=0.073568, x=0.07357, mu/RT=-34.611, activity=9.3038e-16, ref=SER (default)
  U : moles=0.26257, x=0.26257, mu/RT=-34.317, activity=1.2487e-15, ref=SER (default)

[OC parser] Parsed phases
  Phase condensed : moles=1, volume=0
    Elements
      O = 1.97832
      Pu = 0.219234
      U = 0.782447
    Species
      C1_MO2 : moles=1, volume=0
        O = 1.97832
        Pu = 0.219234
        U = 0.782447
[Thermochemistry] C1_MO2 (condensed, matrix) composition=O:1.9783207,Pu:0.21923353,U:0.78244668 molar_mass=270.304 g/mol
OpenCalphad attempt for 'matrix' with WARM-START

[OC input] ./OCinput_matrix.OCM
----------------------------------------
r u ./OCoutput_matrix.OCU

set ref o gas * 100000

set c t=1560
set c p=268000
set c n(o)=0.664146
set c n(pu)=0.0731764
set c n(u)=0.262677
c e
c w

save u ./OCoutput_matrix Y

l /out=./OCoutput_matrix.DAT r 1

fin
----------------------------------------

3A unfished preparations for XTDB


Open Calphad (OC) software version   6.106 , linked 2026-04-16
with command line monitor version  73

This program is available with a GNU General Public License.
either version 2 of the License, or any later version.
It includes the General Thermodynamic Package, version GTP-3.31,
Hillert's equilibrium calculation algorithm version HMS-3.0 ,
step/map/plot software version SMP-2.30 using GNUPLOT 5.2 graphics.
Numerical routines are extracted from LAPACK and BLAS and
the assessment procedure uses LMDIF from ANL.

Linked with OpenMp for parallel execution
 Warning, no environment variable OCHOME and no help file
 Working directory is: /home/ecappellari/transparant/sciantix-official/regression/test_JOG_MOX/point_06_r_1p7mm
--->OC6:
Read unformatted file: This is a save file for OC version:     OCF-3.20
Generated:  2026.04.20 11h29

 3E reading unformatted:        15024           0           0
3E Addition type   1, Inden-Hillert magn model for BCC_A2
3E Addition type   1, Inden-Hillert magn model for FCC_A1
 3E no experimental data
 3E no coefficient values saved
 3E Read assessment record
 No coefficients allocated
--->OC6:--->OC6:--->OC6:--->OC6:--->OC6:--->OC6:--->OC6:--->OC6:--->OC6:3Y Removed  1 gridpoints by merging
Gridmin:    7483 points   8.77E-03 s and       7 clockcycles, T= 1560.00
 3Y leaving global_gridmin
Phase change iteration:     4  -C1_MO2_AUTO#2
Equilibrium result:  16 its,  9.4880E-03 s,      9 cc, GS= -4.3749355E+05 J/mol
--->OC6:Equilibrium result:  22 its,  8.0800E-04 s,      1 cc, GS= -4.3749355E+05 J/mol
3Y Testing if any gridpoint is below the calculated equilibrium
--->OC6:--->OC6:
Overwriting previous results on ./OCoutput_matrix.OCU
3E allocating workspace:     122160          (   2160,   10000,    2)
 3E saving            3  symbols as texts
 3E used        12117  words out of       122160  for storing static data
 ceqrecsize not implemented          26
 3E Saving an equilibrium record requires     2854       0 words
 3E not storing unused equilibria from:            2
 3E Saving assessment record
 3E No experimental equilibrium range set
 3E allocating assessment head record          48
 3E no coefficients allocated
 3E no work array (assrec%wopt) allocated
Used    15059 words out of   122160,  12.33% for unformatted memory save
Written workspace      60236 bytes unformatted on ./OCoutput_matrix.OCU
--->OC6:--->OC6:Output on file: ./OCoutput_matrix.DAT
Output unit reset to screen:    6
--->OC6:--->OC6:
[OC output] ./OCoutput_matrix.DAT
----------------------------------------

%%%%%%%%%% OC output written: 2026-04-20  11h29

Output for equilibrium:   1, DEFAULT_EQUILIBRIUM          2026.04.20
Conditions .................................................:
  1:T=1560, 2:P=268000, 3:N(O)=0.664146, 4:N(PU)=.0731764, 5:N(U)=0.262677
 Degrees of freedom are   0

Some global data, reference state SER ......................:
T=   1560.00 K (  1286.85 C), P=  2.6800E+05 Pa, V=  0.0000E+00 m3
N=   1.0000E+00 moles, B=   9.1010E+01 g, RT=   1.2971E+04 J/mol
G= -4.37494E+05 J, G/N=-4.3749E+05 J/mol, H=-3.2513E+05 J, S= 7.203E+01 J/K

Some data for components ...................................:
Component name    Moles      Mole-fr  Chem.pot/RT  Activities  Ref.state
O                 6.6415E-01  0.66415 -1.9751E+01  2.6451E-09  GAS             
PU                7.3176E-02  0.07318 -3.4968E+01  6.5081E-16  SER (default)   
U                 2.6268E-01  0.26268 -3.4690E+01  8.5992E-16  SER (default)   

Some data for phases .......................................:
Name                Status Moles      Volume    Form.Units Cmp/FU dGm/RT  Comp:
C1_MO2#1................ E  1.000E+00  0.00E+00  3.36E-01    2.98  0.00E+00  X:
 O      6.64146E-01  U      2.62677E-01  PU     7.31764E-02


----------------------------------------

[OC parser] Parsed components
  O : moles=0.66415, x=0.66415, mu/RT=-19.751, activity=2.6451e-09, ref=GAS
  Pu : moles=0.073176, x=0.07318, mu/RT=-34.968, activity=6.5081e-16, ref=SER (default)
  U : moles=0.26268, x=0.26268, mu/RT=-34.69, activity=8.5992e-16, ref=SER (default)

[OC parser] Parsed phases
  Phase condensed : moles=1, volume=0
    Elements
      O = 1.97916
      Pu = 0.218066
      U = 0.782777
    Species
      C1_MO2 : moles=1, volume=0
        O = 1.97916
        Pu = 0.218066
        U = 0.782777
OpenCalphad attempt for 'matrix' with WARM-START

[OC input] ./OCinput_matrix.OCM
----------------------------------------
r u ./OCoutput_matrix.OCU

set ref o gas * 100000

set c t=1560
set c p=336000
set c n(o)=0.664427
set c n(pu)=0.0727842
set c n(u)=0.262788
c e
c w

save u ./OCoutput_matrix Y

l /out=./OCoutput_matrix.DAT r 1

fin
----------------------------------------

3A unfished preparations for XTDB


Open Calphad (OC) software version   6.106 , linked 2026-04-16
with command line monitor version  73

This program is available with a GNU General Public License.
either version 2 of the License, or any later version.
It includes the General Thermodynamic Package, version GTP-3.31,
Hillert's equilibrium calculation algorithm version HMS-3.0 ,
step/map/plot software version SMP-2.30 using GNUPLOT 5.2 graphics.
Numerical routines are extracted from LAPACK and BLAS and
the assessment procedure uses LMDIF from ANL.

Linked with OpenMp for parallel execution
 Warning, no environment variable OCHOME and no help file
 Working directory is: /home/ecappellari/transparant/sciantix-official/regression/test_JOG_MOX/point_06_r_1p7mm
--->OC6:
Read unformatted file: This is a save file for OC version:     OCF-3.20
Generated:  2026.04.20 11h29

 3E reading unformatted:        15024           0           0
3E Addition type   1, Inden-Hillert magn model for BCC_A2
3E Addition type   1, Inden-Hillert magn model for FCC_A1
 3E no experimental data
 3E no coefficient values saved
 3E Read assessment record
 No coefficients allocated
--->OC6:--->OC6:--->OC6:--->OC6:--->OC6:--->OC6:--->OC6:--->OC6:--->OC6:3Y Removed  1 gridpoints by merging
Gridmin:    7483 points   8.40E-03 s and       7 clockcycles, T= 1560.00
 3Y leaving global_gridmin
Phase change iteration:     4  -C1_MO2_AUTO#2
Equilibrium result:  16 its,  9.1150E-03 s,      9 cc, GS= -4.3748562E+05 J/mol
--->OC6:Equilibrium result:  23 its,  9.4300E-04 s,      1 cc, GS= -4.3748562E+05 J/mol
3Y Testing if any gridpoint is below the calculated equilibrium
--->OC6:--->OC6:
Overwriting previous results on ./OCoutput_matrix.OCU
3E allocating workspace:     122160          (   2160,   10000,    2)
 3E saving            3  symbols as texts
 3E used        12117  words out of       122160  for storing static data
 ceqrecsize not implemented          26
 3E Saving an equilibrium record requires     2854       0 words
 3E not storing unused equilibria from:            2
 3E Saving assessment record
 3E No experimental equilibrium range set
 3E allocating assessment head record          48
 3E no coefficients allocated
 3E no work array (assrec%wopt) allocated
Used    15059 words out of   122160,  12.33% for unformatted memory save
Written workspace      60236 bytes unformatted on ./OCoutput_matrix.OCU
--->OC6:--->OC6:Output on file: ./OCoutput_matrix.DAT
Output unit reset to screen:    6
--->OC6:--->OC6:
[OC output] ./OCoutput_matrix.DAT
----------------------------------------

%%%%%%%%%% OC output written: 2026-04-20  11h29

Output for equilibrium:   1, DEFAULT_EQUILIBRIUM          2026.04.20
Conditions .................................................:
  1:T=1560, 2:P=336000, 3:N(O)=0.664427, 4:N(PU)=.0727842, 5:N(U)=0.262788
 Degrees of freedom are   0

Some global data, reference state SER ......................:
T=   1560.00 K (  1286.85 C), P=  3.3600E+05 Pa, V=  0.0000E+00 m3
N=   1.0000E+00 moles, B=   9.0945E+01 g, RT=   1.2971E+04 J/mol
G= -4.37486E+05 J, G/N=-4.3749E+05 J/mol, H=-3.2522E+05 J, S= 7.197E+01 J/K

Some data for components ...................................:
Component name    Moles      Mole-fr  Chem.pot/RT  Activities  Ref.state
O                 6.6443E-01  0.66443 -1.9663E+01  2.8860E-09  GAS             
PU                7.2784E-02  0.07278 -3.5352E+01  4.4331E-16  SER (default)   
U                 2.6279E-01  0.26279 -3.5089E+01  5.7663E-16  SER (default)   

Some data for phases .......................................:
Name                Status Moles      Volume    Form.Units Cmp/FU dGm/RT  Comp:
C1_MO2#1................ E  1.000E+00  0.00E+00  3.36E-01    2.98  0.00E+00  X:
 O      6.64428E-01  U      2.62788E-01  PU     7.27843E-02

C1_MO2_AUTO#2........... E  0.000E+00  0.00E+00  0.00E+00    2.64  5.15E-05  X:
 O      6.21469E-01  U      2.28867E-01  PU     1.49664E-01


----------------------------------------

[OC parser] Parsed components
  O : moles=0.66443, x=0.66443, mu/RT=-19.663, activity=2.886e-09, ref=GAS
  Pu : moles=0.072784, x=0.07278, mu/RT=-35.352, activity=4.4331e-16, ref=SER (default)
  U : moles=0.26279, x=0.26279, mu/RT=-35.089, activity=5.7663e-16, ref=SER (default)

[OC parser] Parsed phases
  Phase condensed : moles=1, volume=0
    Elements
      O = 3.62067
      Pu = 0.61201
      U = 1.38732
    Species
      C1_MO2 : moles=1, volume=0
        O = 1.64068
        Pu = 0.395113
        U = 0.604209
OpenCalphad attempt for 'at grain boundary' with WARM-START

[OC input] ./OCinput_fission_products.OCM
----------------------------------------
@$ Initialize variables:
r t /home/ecappellari/transparant/opencalphad/data/CsMoO_TAFID_2021_Anna cs mo o

set ref o gas * 100000

set c t=1560
set c p=336000
set c n(cs)=3.9558e-05
set c n(mo)=6.70493e-05
set c n(o)=0.999893
c e
set c n(o)=none
set c mu(o)=-510070

c w

save u ./OCoutput_fission_products Y

l /out=./OCoutput_fission_products.DAT r 1

fin
----------------------------------------

3A unfished preparations for XTDB


Open Calphad (OC) software version   6.106 , linked 2026-04-16
with command line monitor version  73

This program is available with a GNU General Public License.
either version 2 of the License, or any later version.
It includes the General Thermodynamic Package, version GTP-3.31,
Hillert's equilibrium calculation algorithm version HMS-3.0 ,
step/map/plot software version SMP-2.30 using GNUPLOT 5.2 graphics.
Numerical routines are extracted from LAPACK and BLAS and
the assessment procedure uses LMDIF from ANL.

Linked with OpenMp for parallel execution
 Warning, no environment variable OCHOME and no help file
 Working directory is: /home/ecappellari/transparant/sciantix-official/regression/test_JOG_MOX/point_06_r_1p7mm
--->OC6:--->OC6: 3E Database file extention is: ".tdb"
Database has  3 elements: CS MO O 
Give the elements to select, finish with empty line
Selected  3 elements: CS MO O 
Select elements /no more/:Selected  3 elements: CS MO O 
3E reading database file: /home/ecappellari/transparant/opencalphad/data/CsMoO_TAFID_2021_Anna.TDB

Out of    82 model parameters    82 have been entered


There are     1 bibliographic references
REF0            '*** Not set by database or user'

--->OC6:--->OC6:--->OC6:--->OC6:--->OC6:--->OC6:--->OC6:--->OC6: 3Y Composition set(s) created:            1
Gridmin:    9683 points   1.05E-02 s and      10 clockcycles, T= 1560.00
 3Y leaving global_gridmin
Phase change iteration:     4  -LIQUID_AUTO#2
Phase change iteration:     6  +LIQUID_AUTO#2
Phase change iteration:    10  -LIQUID_AUTO#2
Equilibrium result:  51 its,  1.2549E-02 s,     13 cc, GS= -1.7319047E+05 J/mol
--->OC6:--->OC6:--->OC6:--->OC6:Phase change iteration:     4  -GAS
Phase change iteration:     8  +HCP_A3
Phase change iteration:    12  -HCP_A3
Phase change iteration:    13  +HCP_A3
Phase change iteration:    17  -HCP_A3
Phase change iteration:    18  +HCP_A3
Phase change iteration:    22  -HCP_A3
Phase change iteration:    23  +HCP_A3
Phase change iteration:    27  -HCP_A3
Phase change iteration:    28  +HCP_A3
Phase change iteration:    32  -HCP_A3
MM Removing phase:   26  25#1
Phase change iteration:    36  +MC_ETA
Phase change iteration:    40  -MC_ETA
Phase change iteration:    41  +MC_ETA
Phase change iteration:    45  +BCC_A2
Phase change iteration:    46  +BCC_A2
Phase change iteration:    47  +BCC_A2
Phase change iteration:    48  +BCC_A2
MM Too many stable phases at iter  48, phase  27 replaced by   4, T=  1560.00
Phase change iteration:    52  -BCC_A2
Phase change iteration:    56  +MC_ETA
Phase change iteration:    60  -MC_ETA
Phase change iteration:    61  +MC_ETA
Phase change iteration:    65  +BCC_A2
MM Removing phase:    4   3#1
Phase change iteration:    67  +CS7O1
Phase change iteration:    68  +CS7O1
Phase change iteration:    69  +CS7O1
MM Too many stable phases at iter  69, phase  27 replaced by  19, T=  1560.00
Phase change iteration:    73  -CS7O1
Phase change iteration:    77  +MC_ETA
Phase change iteration:    81  -MC_ETA
MM Removing phase:   27  26#1
Phase change iteration:    85  +FCC_A1
Phase change iteration:    89  +CS7O1
Phase change iteration:    90  +CS7O1
MM Removing phase:   19  18#1
Phase change iteration:    92  +CS4O
Phase change iteration:    93  +CS4O
MM Too many stable phases at iter  93, phase  25 replaced by  18, T=  1560.00
Phase change iteration:    97  -CS4O
Phase change iteration:   101  +FCC_A1
Phase change iteration:   105  -FCC_A1
Phase change iteration:   106  +FCC_A1
Phase change iteration:   110  +CS4O
Phase change iteration:   111  +CS4O
Phase change iteration:   112  +CS4O
MM Removing phase:   18  17#1
Phase change iteration:   114  +CS7O2
MM Too many stable phases at iter 114, phase  25 replaced by  20, T=  1560.00
Phase change iteration:   118  -CS7O2
Phase change iteration:   122  +FCC_A1
Phase change iteration:   126  -FCC_A1
Phase change iteration:   127  +FCC_A1
Phase change iteration:   131  +CS7O2
Phase change iteration:   132  +CS7O2
Phase change iteration:   133  +CS7O2
Phase change iteration:   134  +CS7O2
MM Too many stable phases at iter 134, phase  25 replaced by  20, T=  1560.00
Phase change iteration:   138  -CS7O2
MM Removing phase:   25  24#1
Phase change iteration:   143  +TETRAGONAL_U
Phase change iteration:   147  -TETRAGONAL_U
Phase change iteration:   148  +TETRAGONAL_U
MM Removing phase:   20  19#1
Phase change iteration:   153  +CS3O
Phase change iteration:   154  +CS3O
Phase change iteration:   155  +CS3O
Phase change iteration:   156  +CS3O
MM Too many stable phases at iter 156, phase  38 replaced by  17, T=  1560.00
Phase change iteration:   160  -CS3O
Phase change iteration:   164  +TETRAGONAL_U
Phase change iteration:   168  -TETRAGONAL_U
Phase change iteration:   169  +TETRAGONAL_U
Phase change iteration:   173  +CS3O
MM Removing phase:   17  16#1
Phase change iteration:   175  +CS2O1
Phase change iteration:   176  +CS2O1
Phase change iteration:   177  +CS2O1
MM Too many stable phases at iter 177, phase  38 replaced by  15, T=  1560.00
Phase change iteration:   181  -CS2O1
Phase change iteration:   185  +TETRAGONAL_U
Phase change iteration:   189  -TETRAGONAL_U
MM Removing phase:   38  37#1
Phase change iteration:   193  +MO3TE4
Phase change iteration:   197  +CS2O1
Phase change iteration:   198  +CS2O1
MM Removing phase:   15  14#1
Phase change iteration:   200  +CS2O2
Phase change iteration:   201  +CS2O2
MM Too many stable phases at iter 201, phase  28 replaced by  16, T=  1560.00
Phase change iteration:   205  -CS2O2
Phase change iteration:   209  +MO3TE4
Phase change iteration:   213  -MO3TE4
Phase change iteration:   214  +MO3TE4
Phase change iteration:   218  +CS2O2
Phase change iteration:   219  +CS2O2
Phase change iteration:   220  +CS2O2
MM Removing phase:   16  15#1
Phase change iteration:   227  +LIQUID_AUTO#2
MM Too many stable phases at iter 227, phase  28 replaced by   3, T=  1560.00
Phase change iteration:   231  -LIQUID#1
Phase change iteration:   232  +LIQUID#1
Phase change iteration:   236  -LIQUID#1
Phase change iteration:   240  +GAS
Phase change iteration:   244  +MO3TE4
Phase change iteration:   245  +MO3TE4
MM Removing phase:   28  27#1
Phase change iteration:   247  -GAS
Phase change iteration:   248  +GAS
Phase change iteration:   252  -GAS
Phase change iteration:   253  +GAS
Phase change iteration:   257  -GAS
Phase change iteration:   258  +GAS
Phase change iteration:   262  -GAS
Phase change iteration:   263  +GAS
Phase change iteration:   267  -GAS
MM Removing phase:    1   1#1
Phase change iteration:   271  +LIQUID#1
Phase change iteration:   275  -LIQUID#1
Phase change iteration:   276  +LIQUID#1
Phase change iteration:   280  -LIQUID#1
Phase change iteration:   281  +LIQUID#1
Phase change iteration:   285  -LIQUID#1
Phase change iteration:   286  +LIQUID#1
Phase change iteration:   290  -LIQUID#1
MM Removing phase:    2   2#1
MM Restoring phase:      2    2  LIQUID#1       4.9863E-01
MM Restoring phase:      1    1  GAS       2.3035E+00
MM Restoring phase:     28   27  MO3TE4
MM Restoring phase:     16   15  CS2O2
MM Restoring phase:     15   14  CS2O1
MM Restoring phase:     38   37  TETRAGONAL_U       1.0689E-01
MM Restoring phase:     17   16  CS3O
MM Restoring phase:     20   19  CS7O2
MM Restoring phase:     25   24  FCC_A1       7.1016E-01
MM Restoring phase:     18   17  CS4O
MM Restoring phase:     19   18  CS7O1
MM Restoring phase:     27   26  MC_ETA       2.7783E-01
MM Restoring phase:      4    3  BCC_A2       1.5295E+00
MM Restoring phase:     26   25  HCP_A3       9.3352E-01
 MM warning, a restored phase wants to be stable:          26

Error codes:   4363     0    50
Message: No equilibrium, a restored phase should be stable

--->OC6:--->OC6:3E allocating workspace:     123330          (   3330,   10000,    2)
 3E saving            3  symbols as texts
 3E used        12286  words out of       123330  for storing static data
 ceqrecsize not implemented          39
 3E Saving an equilibrium record requires     4188       0 words
 3E not storing unused equilibria from:            2
 3E Saving assessment record
 3E No experimental equilibrium range set
 3E allocating assessment head record          48
 3E no coefficients allocated
 3E no work array (assrec%wopt) allocated
Used    16562 words out of   123330,  13.43% for unformatted memory save
Written workspace      66248 bytes unformatted on ./OCoutput_fission_products.OCU
--->OC6:--->OC6:Output on file: ./OCoutput_fission_products.DAT

Output unit reset to screen:    6
--->OC6:--->OC6:
[OC output] ./OCoutput_fission_products.DAT
----------------------------------------

%%%%%%%%%% OC output written: 2026-04-20  11h29

Output for equilibrium:   1, DEFAULT_EQUILIBRIUM          2026.04.20

 *** The results below are not a valid equilibrium as last calculation failed

Conditions .................................................:
  1:T=1560, 2:P=336000, 3:N(CS)=3.9558E-05, 4:N(MO)=6.70493E-05, 5:MU(O)=
    -510070
 Degrees of freedom are   0

Some global data, reference state SER ......................:
T=   1560.00 K (  1286.85 C), P=  3.3600E+05 Pa, V=  0.0000E+00 m3
N=   1.0661E-04 moles, B=   1.1690E-02 g, RT=   1.2971E+04 J/mol
G= -1.09381E+01 J, G/N=-1.0260E+05 J/mol, H= 8.1220E+00 J, S= 1.222E-02 J/K

Some data for components ...................................:
Component name    Moles      Mole-fr  Chem.pot/RT  Activities  Ref.state
CS                3.9558E-05  0.37106 -1.3555E+01  1.2973E-06  SER (default)   
MO                6.7049E-05  0.62894 -4.5799E+00  1.0256E-02  SER (default)   
O                 1.2902E-15  0.00000 -3.9325E+01  8.3441E-18  GAS             

Some data for phases .......................................:
Name                Status Moles      Volume    Form.Units Cmp/FU dGm/RT  Comp:
GAS..................... E  0.000E+00  0.00E+00  0.00E+00    1.23  1.88E+00  X:
 CS     1.00000E+00  O      5.31538E-13  MO     3.72168E-16
Constitution: There are    18 constituents:
 CS           7.72132E-01  O            2.39000E-24  MOO2         1.00000E-30
 CS2          2.27868E-01  MOO          6.45970E-25  MOO3         1.00000E-30
 CS2O         6.52646E-13  CS2O2        1.85350E-30  MO3O9        1.00000E-30
 MO           4.56973E-16  MO4O12       1.00000E-30  O2           1.00000E-30
 CSO          1.22975E-17  MO5O15       1.00000E-30  O3           1.00000E-30
 MO2          2.28241E-22  MO2O6        1.00000E-30  CS2MOO4      1.00000E-30

LIQUID#1................ E  0.000E+00  0.00E+00  0.00E+00    1.22  4.08E-01  X:
 CS     9.25981E-01  MO     7.40188E-02  O      1.38084E-11

LIQUID_AUTO#2........... E  1.066E-04  0.00E+00  3.69E-05    2.89  0.00E+00  X:
 MO     6.28937E-01  CS     3.71063E-01  O      1.21024E-11

BCC_A2.................. E  0.000E+00  0.00E+00  0.00E+00    1.00  1.53E+00  X:
 MO     9.95891E-01  CS     4.10864E-03  O      3.30132E-12

FCC_A1.................. E  0.000E+00  0.00E+00  0.00E+00    1.00  7.10E-01  X:
 MO     6.48993E-01  CS     3.51007E-01  O      1.10088E-12

HCP_A3.................. E  0.000E+00  0.00E+00  0.00E+00    1.00  9.34E-01  X:
 MO     7.41922E-01  CS     2.58078E-01  O      5.50055E-13

MC_ETA.................. E  0.000E+00  0.00E+00  0.00E+00    1.00  2.78E-01  X:
 MO     1.00000E+00  O      0.00000E+00  CS     0.00000E+00

TETRAGONAL_U............ E  0.000E+00  0.00E+00  0.00E+00    1.00  1.07E-01  X:
 MO     1.00000E+00  O      0.00000E+00  CS     0.00000E+00


 *** There are phase(s) which would like to be stable:
   GAS  1.8760E+00   LIQUID  4.0803E-01   BCC_A2  1.5295E+00   FCC_A1  7.1016E-01   HCP_A3  9.3352E-01   MC_ETA  2.7783E-01   TETRAGONAL_U  1.0689E-01
 *** The results above are not a valid equilibrium as last calculation failed


----------------------------------------
Warning: OpenCalphad returned an invalid equilibrium for location 'at grain boundary' using WARM-START.
Captured fallback N(O)=1.2902e-15 from invalid MU(O) output for location 'at grain boundary'.
OpenCalphad attempt for 'at grain boundary' with COLD-START

[OC input] ./OCinput_fission_products.OCM
----------------------------------------
@$ Initialize variables:
r t /home/ecappellari/transparant/opencalphad/data/CsMoO_TAFID_2021_Anna cs mo o

set ref o gas * 100000

set c t=1560
set c p=336000
set c n(cs)=3.9558e-05
set c n(mo)=6.70493e-05
set c n(o)=0.999893
c e
set c n(o)=none
set c mu(o)=-510070

c e
c w
l /out=./OCoutput_fission_products.DAT r 1

fin
----------------------------------------

3A unfished preparations for XTDB


Open Calphad (OC) software version   6.106 , linked 2026-04-16
with command line monitor version  73

This program is available with a GNU General Public License.
either version 2 of the License, or any later version.
It includes the General Thermodynamic Package, version GTP-3.31,
Hillert's equilibrium calculation algorithm version HMS-3.0 ,
step/map/plot software version SMP-2.30 using GNUPLOT 5.2 graphics.
Numerical routines are extracted from LAPACK and BLAS and
the assessment procedure uses LMDIF from ANL.

Linked with OpenMp for parallel execution
 Warning, no environment variable OCHOME and no help file
 Working directory is: /home/ecappellari/transparant/sciantix-official/regression/test_JOG_MOX/point_06_r_1p7mm
--->OC6:--->OC6: 3E Database file extention is: ".tdb"
Database has  3 elements: CS MO O 
Give the elements to select, finish with empty line
Selected  3 elements: CS MO O 
Select elements /no more/:Selected  3 elements: CS MO O 
3E reading database file: /home/ecappellari/transparant/opencalphad/data/CsMoO_TAFID_2021_Anna.TDB

Out of    82 model parameters    82 have been entered


There are     1 bibliographic references
REF0            '*** Not set by database or user'

--->OC6:--->OC6:--->OC6:--->OC6:--->OC6:--->OC6:--->OC6:--->OC6: 3Y Composition set(s) created:            1
Gridmin:    9683 points   1.05E-02 s and      10 clockcycles, T= 1560.00
 3Y leaving global_gridmin
Phase change iteration:     4  -LIQUID_AUTO#2
Phase change iteration:     6  +LIQUID_AUTO#2
Phase change iteration:    10  -LIQUID_AUTO#2
Equilibrium result:  51 its,  1.2323E-02 s,     13 cc, GS= -1.7319047E+05 J/mol
--->OC6:--->OC6:--->OC6:--->OC6:Warning: global minimizer cannot be used for the current set of conditions
Phase change iteration:     4  -GAS
Phase change iteration:     8  +HCP_A3
Phase change iteration:    12  -HCP_A3
Phase change iteration:    13  +HCP_A3
Phase change iteration:    17  -HCP_A3
Phase change iteration:    18  +HCP_A3
Phase change iteration:    22  -HCP_A3
Phase change iteration:    23  +HCP_A3
Phase change iteration:    27  -HCP_A3
Phase change iteration:    28  +HCP_A3
Phase change iteration:    32  -HCP_A3
MM Removing phase:   26  25#1
Phase change iteration:    36  +MC_ETA
Phase change iteration:    40  -MC_ETA
Phase change iteration:    41  +MC_ETA
Phase change iteration:    45  +BCC_A2
Phase change iteration:    46  +BCC_A2
Phase change iteration:    47  +BCC_A2
Phase change iteration:    48  +BCC_A2
MM Too many stable phases at iter  48, phase  27 replaced by   4, T=  1560.00
Phase change iteration:    52  -BCC_A2
Phase change iteration:    56  +MC_ETA
Phase change iteration:    60  -MC_ETA
Phase change iteration:    61  +MC_ETA
Phase change iteration:    65  +BCC_A2
MM Removing phase:    4   3#1
Phase change iteration:    67  +CS7O1
Phase change iteration:    68  +CS7O1
Phase change iteration:    69  +CS7O1
MM Too many stable phases at iter  69, phase  27 replaced by  19, T=  1560.00
Phase change iteration:    73  -CS7O1
Phase change iteration:    77  +MC_ETA
Phase change iteration:    81  -MC_ETA
MM Removing phase:   27  26#1
Phase change iteration:    85  +FCC_A1
Phase change iteration:    89  +CS7O1
Phase change iteration:    90  +CS7O1
MM Removing phase:   19  18#1
Phase change iteration:    92  +CS4O
Phase change iteration:    93  +CS4O
MM Too many stable phases at iter  93, phase  25 replaced by  18, T=  1560.00
Phase change iteration:    97  -CS4O
Phase change iteration:   101  +FCC_A1
Phase change iteration:   105  -FCC_A1
Phase change iteration:   106  +FCC_A1
Phase change iteration:   110  +CS4O
Phase change iteration:   111  +CS4O
Phase change iteration:   112  +CS4O
MM Removing phase:   18  17#1
Phase change iteration:   114  +CS7O2
MM Too many stable phases at iter 114, phase  25 replaced by  20, T=  1560.00
Phase change iteration:   118  -CS7O2
Phase change iteration:   122  +FCC_A1
Phase change iteration:   126  -FCC_A1
Phase change iteration:   127  +FCC_A1
Phase change iteration:   131  +CS7O2
Phase change iteration:   132  +CS7O2
Phase change iteration:   133  +CS7O2
Phase change iteration:   134  +CS7O2
MM Too many stable phases at iter 134, phase  25 replaced by  20, T=  1560.00
Phase change iteration:   138  -CS7O2
MM Removing phase:   25  24#1
Phase change iteration:   143  +TETRAGONAL_U
Phase change iteration:   147  -TETRAGONAL_U
Phase change iteration:   148  +TETRAGONAL_U
MM Removing phase:   20  19#1
Phase change iteration:   153  +CS3O
Phase change iteration:   154  +CS3O
Phase change iteration:   155  +CS3O
Phase change iteration:   156  +CS3O
MM Too many stable phases at iter 156, phase  38 replaced by  17, T=  1560.00
Phase change iteration:   160  -CS3O
Phase change iteration:   164  +TETRAGONAL_U
Phase change iteration:   168  -TETRAGONAL_U
Phase change iteration:   169  +TETRAGONAL_U
Phase change iteration:   173  +CS3O
MM Removing phase:   17  16#1
Phase change iteration:   175  +CS2O1
Phase change iteration:   176  +CS2O1
Phase change iteration:   177  +CS2O1
MM Too many stable phases at iter 177, phase  38 replaced by  15, T=  1560.00
Phase change iteration:   181  -CS2O1
Phase change iteration:   185  +TETRAGONAL_U
Phase change iteration:   189  -TETRAGONAL_U
MM Removing phase:   38  37#1
Phase change iteration:   193  +MO3TE4
Phase change iteration:   197  +CS2O1
Phase change iteration:   198  +CS2O1
MM Removing phase:   15  14#1
Phase change iteration:   200  +CS2O2
Phase change iteration:   201  +CS2O2
MM Too many stable phases at iter 201, phase  28 replaced by  16, T=  1560.00
Phase change iteration:   205  -CS2O2
Phase change iteration:   209  +MO3TE4
Phase change iteration:   213  -MO3TE4
Phase change iteration:   214  +MO3TE4
Phase change iteration:   218  +CS2O2
Phase change iteration:   219  +CS2O2
Phase change iteration:   220  +CS2O2
MM Removing phase:   16  15#1
Phase change iteration:   227  +LIQUID_AUTO#2
MM Too many stable phases at iter 227, phase  28 replaced by   3, T=  1560.00
Phase change iteration:   231  -LIQUID#1
Phase change iteration:   232  +LIQUID#1
Phase change iteration:   236  -LIQUID#1
Phase change iteration:   240  +GAS
Phase change iteration:   244  +MO3TE4
Phase change iteration:   245  +MO3TE4
MM Removing phase:   28  27#1
Phase change iteration:   247  -GAS
Phase change iteration:   248  +GAS
Phase change iteration:   252  -GAS
Phase change iteration:   253  +GAS
Phase change iteration:   257  -GAS
Phase change iteration:   258  +GAS
Phase change iteration:   262  -GAS
Phase change iteration:   263  +GAS
Phase change iteration:   267  -GAS
MM Removing phase:    1   1#1
Phase change iteration:   271  +LIQUID#1
Phase change iteration:   275  -LIQUID#1
Phase change iteration:   276  +LIQUID#1
Phase change iteration:   280  -LIQUID#1
Phase change iteration:   281  +LIQUID#1
Phase change iteration:   285  -LIQUID#1
Phase change iteration:   286  +LIQUID#1
Phase change iteration:   290  -LIQUID#1
MM Removing phase:    2   2#1
MM Restoring phase:      2    2  LIQUID#1       4.9863E-01
MM Restoring phase:      1    1  GAS       2.3035E+00
MM Restoring phase:     28   27  MO3TE4
MM Restoring phase:     16   15  CS2O2
MM Restoring phase:     15   14  CS2O1
MM Restoring phase:     38   37  TETRAGONAL_U       1.0689E-01
MM Restoring phase:     17   16  CS3O
MM Restoring phase:     20   19  CS7O2
MM Restoring phase:     25   24  FCC_A1       7.1016E-01
MM Restoring phase:     18   17  CS4O
MM Restoring phase:     19   18  CS7O1
MM Restoring phase:     27   26  MC_ETA       2.7783E-01
MM Restoring phase:      4    3  BCC_A2       1.5295E+00
MM Restoring phase:     26   25  HCP_A3       9.3352E-01
 MM warning, a restored phase wants to be stable:          26

Error codes:   4363     0    50
Message: No equilibrium, a restored phase should be stable

--->OC6:Phase change iteration:     4  +GAS
Phase change iteration:     8  -GAS
Phase change iteration:     9  +GAS
Phase change iteration:    13  -GAS
Phase change iteration:    14  +GAS
Phase change iteration:    18  +BCC_A2
Phase change iteration:    19  -GAS
Phase change iteration:    20  +GAS
Phase change iteration:    24  -GAS
Phase change iteration:    25  +GAS
Phase change iteration:    29  -GAS
MM Removing phase:    1   1#1
Phase change iteration:    33  +BCC_A2
Phase change iteration:    37  +LIQUID#1
Phase change iteration:    38  +LIQUID#1
Phase change iteration:    39  +LIQUID#1
Phase change iteration:    40  +LIQUID#1
MM Too many stable phases at iter  40, phase   3 replaced by   2, T=  1560.00
MM Restoring phase:      1    1  GAS       1.9097E+00
 MM warning, a restored phase wants to be stable:           1

Error codes:   4363     0    50
Message: No equilibrium, a restored phase should be stable

--->OC6:Output on file: ./OCoutput_fission_products.DAT

Output unit reset to screen:    6
--->OC6:--->OC6:
[OC output] ./OCoutput_fission_products.DAT
----------------------------------------

%%%%%%%%%% OC output written: 2026-04-20  11h29

Output for equilibrium:   1, DEFAULT_EQUILIBRIUM          2026.04.20

 *** The results below are not a valid equilibrium as last calculation failed

Conditions .................................................:
  1:T=1560, 2:P=336000, 3:N(CS)=3.9558E-05, 4:N(MO)=6.70493E-05, 5:MU(O)=
    -510070
 Degrees of freedom are   0

Some global data, reference state SER ......................:
T=   1560.00 K (  1286.85 C), P=  3.3600E+05 Pa, V=  0.0000E+00 m3
N=   1.0661E-04 moles, B=   1.1690E-02 g, RT=   1.2971E+04 J/mol
G= -1.25509E+01 J, G/N=-1.1773E+05 J/mol, H= 4.1327E+00 J, S= 1.069E-02 J/K

Some data for components ...................................:
Component name    Moles      Mole-fr  Chem.pot/RT  Activities  Ref.state
CS                3.9558E-05  0.37106 -1.4094E+01  7.5719E-07  SER (default)   
MO                6.7049E-05  0.62894 -6.1167E+00  2.2058E-03  SER (default)   
O                 1.7476E-15  0.00000 -3.9325E+01  8.3441E-18  GAS             

Some data for phases .......................................:
Name                Status Moles      Volume    Form.Units Cmp/FU dGm/RT  Comp:
GAS..................... E  0.000E+00  0.00E+00  0.00E+00    1.15  1.67E+00  X:
 CS     1.00000E+00  O      3.66947E-13  MO     1.62209E-16
Constitution: There are    18 constituents:
 CS           8.53062E-01  O            4.52402E-24  MOO2         1.00000E-30
 CS2          1.46938E-01  MOO          2.62988E-25  MOO3         1.00000E-30
 CS2O         4.20852E-13  CS2O2        1.19521E-30  MO3O9        1.00000E-30
 MO           1.86043E-16  MO4O12       1.00000E-30  O2           1.00000E-30
 CSO          1.35864E-17  MO5O15       1.00000E-30  O3           1.00000E-30
 MO2          1.99856E-23  MO2O6        1.00000E-30  CS2MOO4      1.00000E-30

LIQUID#1................ E  3.896E-05  0.00E+00  3.84E-05    1.02  0.00E+00  X:
 CS     9.94936E-01  MO     5.06425E-03  O      3.91239E-11

BCC_A2.................. E  6.765E-05  0.00E+00  6.76E-05    1.00  0.00E+00  X:
 MO     9.88266E-01  CS     1.17343E-02  O      3.30132E-12


 *** There are phase(s) which would like to be stable:
   GAS  1.6650E+00
 *** The results above are not a valid equilibrium as last calculation failed


----------------------------------------
Warning: OpenCalphad returned an invalid equilibrium for location 'at grain boundary' using COLD-START.
Captured fallback N(O)=1.7476e-15 from invalid MU(O) output for location 'at grain boundary'.
OpenCalphad attempt for 'at grain boundary' with PRESSURE-SWEEP

[OC input] ./OCinput_fission_products.OCM
----------------------------------------
@$ Initialize variables:
r t /home/ecappellari/transparant/opencalphad/data/CsMoO_TAFID_2021_Anna cs mo o

set ref o gas * 100000

set c t=1560
set c p=336000
set c n(cs)=3.9558e-05
set c n(mo)=6.70493e-05
set c n(o)=0.999893
c e
set c n(o)=none
set c mu(o)=-510070

set c p=100000
c w
set axis
1
p
100000
336000


step
normal

set c p=336000
c e
c w
l /out=./OCoutput_fission_products.DAT r 1

fin
----------------------------------------

3A unfished preparations for XTDB


Open Calphad (OC) software version   6.106 , linked 2026-04-16
with command line monitor version  73

This program is available with a GNU General Public License.
either version 2 of the License, or any later version.
It includes the General Thermodynamic Package, version GTP-3.31,
Hillert's equilibrium calculation algorithm version HMS-3.0 ,
step/map/plot software version SMP-2.30 using GNUPLOT 5.2 graphics.
Numerical routines are extracted from LAPACK and BLAS and
the assessment procedure uses LMDIF from ANL.

Linked with OpenMp for parallel execution
 Warning, no environment variable OCHOME and no help file
 Working directory is: /home/ecappellari/transparant/sciantix-official/regression/test_JOG_MOX/point_06_r_1p7mm
--->OC6:--->OC6: 3E Database file extention is: ".tdb"
Database has  3 elements: CS MO O 
Give the elements to select, finish with empty line
Selected  3 elements: CS MO O 
Select elements /no more/:Selected  3 elements: CS MO O 
3E reading database file: /home/ecappellari/transparant/opencalphad/data/CsMoO_TAFID_2021_Anna.TDB

Out of    82 model parameters    82 have been entered


There are     1 bibliographic references
REF0            '*** Not set by database or user'

--->OC6:--->OC6:--->OC6:--->OC6:--->OC6:--->OC6:--->OC6:--->OC6: 3Y Composition set(s) created:            1
Gridmin:    9683 points   1.03E-02 s and      10 clockcycles, T= 1560.00
 3Y leaving global_gridmin
Phase change iteration:     4  -LIQUID_AUTO#2
Phase change iteration:     6  +LIQUID_AUTO#2
Phase change iteration:    10  -LIQUID_AUTO#2
Equilibrium result:  51 its,  1.2643E-02 s,     12 cc, GS= -1.7319047E+05 J/mol
--->OC6:--->OC6:--->OC6:--->OC6:--->OC6:Phase change iteration:     4  -GAS
Phase change iteration:     8  +HCP_A3
Phase change iteration:    12  -HCP_A3
Phase change iteration:    13  +HCP_A3
Phase change iteration:    17  -HCP_A3
Phase change iteration:    18  +HCP_A3
Phase change iteration:    22  -HCP_A3
Phase change iteration:    23  +HCP_A3
Phase change iteration:    27  -HCP_A3
Phase change iteration:    28  +HCP_A3
Phase change iteration:    32  -HCP_A3
MM Removing phase:   26  25#1
Phase change iteration:    36  +MC_ETA
Phase change iteration:    40  -MC_ETA
Phase change iteration:    41  +MC_ETA
Phase change iteration:    45  -MC_ETA
Phase change iteration:    46  +MC_ETA
Phase change iteration:    50  -MC_ETA
Phase change iteration:    51  +MC_ETA
Phase change iteration:    55  -MC_ETA
Phase change iteration:    56  +MC_ETA
Phase change iteration:    60  -MC_ETA
MM Removing phase:   27  26#1
Phase change iteration:    64  +FCC_A1
Phase change iteration:    68  -FCC_A1
Phase change iteration:    69  +FCC_A1
Phase change iteration:    73  -FCC_A1
Phase change iteration:    74  +FCC_A1
Phase change iteration:    78  -FCC_A1
Phase change iteration:    79  +FCC_A1
Phase change iteration:    83  -FCC_A1
Phase change iteration:    84  +FCC_A1
Phase change iteration:    88  -FCC_A1
MM Removing phase:   25  24#1
Phase change iteration:    92  +TETRAGONAL_U
Phase change iteration:    96  -TETRAGONAL_U
Phase change iteration:    97  +TETRAGONAL_U
Phase change iteration:   101  -TETRAGONAL_U
Phase change iteration:   102  +TETRAGONAL_U
Phase change iteration:   106  -TETRAGONAL_U
Phase change iteration:   107  +TETRAGONAL_U
Phase change iteration:   111  -TETRAGONAL_U
Phase change iteration:   112  +TETRAGONAL_U
Phase change iteration:   116  +BCC_A2
Phase change iteration:   117  +BCC_A2
Phase change iteration:   118  +BCC_A2
Phase change iteration:   119  +BCC_A2
MM Too many stable phases at iter 119, phase  38 replaced by   4, T=  1560.00
Phase change iteration:   123  -BCC_A2
MM Removing phase:   38  37#1
Phase change iteration:   128  +MO3TE4
Phase change iteration:   132  +BCC_A2
MM Removing phase:    4   3#1
Phase change iteration:   134  +CS7O1
Phase change iteration:   135  +CS7O1
Phase change iteration:   136  +CS7O1
MM Too many stable phases at iter 136, phase  28 replaced by  19, T=  1560.00
Phase change iteration:   140  -CS7O1
Phase change iteration:   144  +MO3TE4
Phase change iteration:   161  +GAS
Phase change iteration:   162  +GAS
Phase change iteration:   163  +GAS
Phase change iteration:   164  +GAS
MM Too many stable phases at iter 164, phase   2 replaced by   1, T=  1560.00
MM Restoring phase:      4    3  BCC_A2
MM Restoring phase:     38   37  TETRAGONAL_U       1.2336E-01
MM Restoring phase:     25   24  FCC_A1       3.0626E-01
MM Restoring phase:     27   26  MC_ETA       2.9430E-01
MM Restoring phase:     26   25  HCP_A3       6.5919E-01
 MM warning, a restored phase wants to be stable:          26

Error codes:   4363     0    50
Message: No equilibrium, a restored phase should be stable

--->OC6:Axis number /1/: Condition varying along axis:Minimal value /0/: Maximal value /1/: Increment /5900/: --->OC6:--->OC6:Step options? /NORMAL/:  There are            1  start equilibria
 Entering map_startpoint           1
MM Phase change not allowed: +BCC_A2
Warning: global minimizer cannot be used for the current set of conditions
MM Calculate with activity condition
Phase change iteration:     4  +BCC_A2
Phase change iteration:     5  +BCC_A2
Phase change iteration:     6  +BCC_A2
Phase change iteration:     7  +BCC_A2
MM Too many stable phases at iter   7, phase  28 replaced by   4, T=  1560.00
MM Calculate with activity condition
 SMP2A call map_doallines

Line   1 from   1.000000E+05 with: GAS BCC_A2  
Equilibria calculated     20
Equilibria calculated     40
Terminating line with   46 equilibria at axis limit   3.3600E+05

Line   2 from   1.000000E+05 with: GAS BCC_A2  
Terminating line with    2 equilibria at axis limit   1.0000E+05

Finished step/map with    48 equilibria in   3.8961E-02 CPU s and      38 cc
--->OC6:--->OC6:--->OC6:Warning: global minimizer cannot be used for the current set of conditions
Equilibrium result:   9 its,  4.0500E-04 s,      0 cc, GS= -1.3595731E+01 J/mol
3Y Testing if any gridpoint is below the calculated equilibrium
--->OC6:Equilibrium result:   9 its,  3.4100E-04 s,      0 cc, GS= -1.3595731E+01 J/mol
3Y Testing if any gridpoint is below the calculated equilibrium
--->OC6:Output on file: ./OCoutput_fission_products.DAT
Output unit reset to screen:    6
--->OC6:--->OC6:
[OC output] ./OCoutput_fission_products.DAT
----------------------------------------

%%%%%%%%%% OC output written: 2026-04-20  11h29

Output for equilibrium:   1, DEFAULT_EQUILIBRIUM          2026.04.20
Conditions .................................................:
  1:T=1560, 2:P=336000, 3:N(CS)=3.9558E-05, 4:N(MO)=6.70493E-05, 5:MU(O)=
    -510070
 Degrees of freedom are   0

Some global data, reference state SER ......................:
T=   1560.00 K (  1286.85 C), P=  3.3600E+05 Pa, V=  1.4912E-06 m3
N=   1.0661E-04 moles, B=   1.1690E-02 g, RT=   1.2971E+04 J/mol
G= -1.35957E+01 J, G/N=-1.2753E+05 J/mol, H= 6.4011E+00 J, S= 1.282E-02 J/K

Some data for components ...................................:
Component name    Moles      Mole-fr  Chem.pot/RT  Activities  Ref.state
CS                3.9558E-05  0.37106 -1.6147E+01  9.7165E-08  SER (default)   
MO                6.7049E-05  0.62894 -6.1068E+00  2.2277E-03  SER (default)   
O                 2.2401E-16  0.00000 -3.9325E+01  8.3441E-18  GAS             

Some data for phases .......................................:
Name                Status Moles      Volume    Form.Units Cmp/FU dGm/RT  Comp:
GAS..................... E  3.946E-05  1.49E-06  3.86E-05    1.02  0.00E+00  X:
 CS     1.00000E+00  O      6.06421E-14  MO     1.64376E-15
Constitution: There are    18 constituents:
 CS           9.78375E-01  O            4.04340E-23  MOO2         1.00000E-30
 CS2          2.16253E-02  MOO          2.37384E-24  MOO3         1.00000E-30
 CS2O         6.19379E-14  MO3O9        1.00000E-30  CS2O2        1.00000E-30
 MO           1.67931E-15  MO4O12       1.00000E-30  O2           1.00000E-30
 CSO          1.55822E-17  MO5O15       1.00000E-30  O3           1.00000E-30
 MO2          1.82191E-22  MO2O6        1.00000E-30  CS2MOO4      1.00000E-30

BCC_A2.................. E  6.714E-05  0.00E+00  6.71E-05    1.00  0.00E+00  X:
 MO     9.98609E-01  CS     1.39109E-03  O      3.30066E-12


----------------------------------------

[OC parser] Parsed components
  Cs : moles=3.9558e-05, x=0.37106, mu/RT=-16.147, activity=9.7165e-08, ref=SER (default)
  Mo : moles=6.7049e-05, x=0.62894, mu/RT=-6.1068, activity=0.0022277, ref=SER (default)
  O : moles=2.2401e-16, x=0, mu/RT=-39.325, activity=8.3441e-18, ref=GAS

[OC parser] Parsed phases
  Phase condensed : moles=6.714e-05, volume=0
    Elements
      Cs = 9.33978e-08
      Mo = 6.70466e-05
      O = 2.21606e-16
    Species
      BCC_A2 : moles=6.714e-05, volume=0
        Cs = 9.33978e-08
        Mo = 6.70466e-05
        O = 2.21606e-16
  Phase gas : moles=3.946e-05, volume=1.49e-06
    Elements
      Cs = 3.946e-05
      Mo = 6.48628e-20
      O = 2.39294e-18
    Species
      CS : moles=3.86067e-05, volume=0
      CS2 : moles=8.53334e-07, volume=0
      CS2MOO4 : moles=3.946e-35, volume=0
      CS2O : moles=2.44407e-18, volume=0
      CS2O2 : moles=3.946e-35, volume=0
      CSO : moles=6.14874e-22, volume=0
      MO : moles=6.62656e-20, volume=0
      MO2 : moles=7.18926e-27, volume=0
      MO2O6 : moles=3.946e-35, volume=0
      MO3O9 : moles=3.946e-35, volume=0
      MO4O12 : moles=3.946e-35, volume=0
      MO5O15 : moles=3.946e-35, volume=0
      MOO : moles=9.36717e-29, volume=0
      MOO2 : moles=3.946e-35, volume=0
      MOO3 : moles=3.946e-35, volume=0
      O : moles=1.59553e-27, volume=0
      O2 : moles=3.946e-35, volume=0
      O3 : moles=3.946e-35, volume=0
      are : moles=0.00071028, volume=0
[Thermochemistry] BCC_A2 (condensed, at grain boundary) composition=Cs:0.00139109,Mo:0.998609,O:3.30066e-12 molar_mass=96.0014 g/mol
[Thermochemistry] CS (gas, at grain boundary) composition=<empty> molar_mass=0 g/mol
[Thermochemistry] CS2 (gas, at grain boundary) composition=<empty> molar_mass=0 g/mol
[Thermochemistry] CS2MOO4 (gas, at grain boundary) composition=<empty> molar_mass=0 g/mol
[Thermochemistry] CS2O (gas, at grain boundary) composition=<empty> molar_mass=0 g/mol
[Thermochemistry] CS2O2 (gas, at grain boundary) composition=<empty> molar_mass=0 g/mol
[Thermochemistry] CSO (gas, at grain boundary) composition=<empty> molar_mass=0 g/mol
[Thermochemistry] MO (gas, at grain boundary) composition=<empty> molar_mass=0 g/mol
[Thermochemistry] MO2 (gas, at grain boundary) composition=<empty> molar_mass=0 g/mol
[Thermochemistry] MO2O6 (gas, at grain boundary) composition=<empty> molar_mass=0 g/mol
[Thermochemistry] MO3O9 (gas, at grain boundary) composition=<empty> molar_mass=0 g/mol
[Thermochemistry] MO4O12 (gas, at grain boundary) composition=<empty> molar_mass=0 g/mol
[Thermochemistry] MO5O15 (gas, at grain boundary) composition=<empty> molar_mass=0 g/mol
[Thermochemistry] MOO (gas, at grain boundary) composition=<empty> molar_mass=0 g/mol
[Thermochemistry] MOO2 (gas, at grain boundary) composition=<empty> molar_mass=0 g/mol
[Thermochemistry] MOO3 (gas, at grain boundary) composition=<empty> molar_mass=0 g/mol
[Thermochemistry] O (gas, at grain boundary) composition=<empty> molar_mass=0 g/mol
[Thermochemistry] O2 (gas, at grain boundary) composition=<empty> molar_mass=0 g/mol
[Thermochemistry] O3 (gas, at grain boundary) composition=<empty> molar_mass=0 g/mol
OpenCalphad attempt for 'matrix' with WARM-START

[OC input] ./OCinput_matrix.OCM
----------------------------------------
r u ./OCoutput_matrix.OCU

set ref o gas * 100000

set c t=1560
set c p=404000
set c n(o)=0.664709
set c n(pu)=0.0723917
set c n(u)=0.2629
c e
c w

save u ./OCoutput_matrix Y

l /out=./OCoutput_matrix.DAT r 1

fin
----------------------------------------

3A unfished preparations for XTDB


Open Calphad (OC) software version   6.106 , linked 2026-04-16
with command line monitor version  73

This program is available with a GNU General Public License.
either version 2 of the License, or any later version.
It includes the General Thermodynamic Package, version GTP-3.31,
Hillert's equilibrium calculation algorithm version HMS-3.0 ,
step/map/plot software version SMP-2.30 using GNUPLOT 5.2 graphics.
Numerical routines are extracted from LAPACK and BLAS and
the assessment procedure uses LMDIF from ANL.

Linked with OpenMp for parallel execution
 Warning, no environment variable OCHOME and no help file
 Working directory is: /home/ecappellari/transparant/sciantix-official/regression/test_JOG_MOX/point_06_r_1p7mm
--->OC6:
Read unformatted file: This is a save file for OC version:     OCF-3.20
Generated:  2026.04.20 11h29

 3E reading unformatted:        15024           0           0
3E Addition type   1, Inden-Hillert magn model for BCC_A2
3E Addition type   1, Inden-Hillert magn model for FCC_A1
 3E no experimental data
 3E no coefficient values saved
 3E Read assessment record
 No coefficients allocated
--->OC6:--->OC6:--->OC6:--->OC6:--->OC6:--->OC6:--->OC6:--->OC6:--->OC6:3Y Removed  1 gridpoints by merging
Gridmin:    7483 points   9.26E-03 s and       7 clockcycles, T= 1560.00
 3Y leaving global_gridmin
Phase change iteration:     4  -C1_MO2_AUTO#2
Equilibrium result:  16 its,  1.0047E-02 s,     10 cc, GS= -4.3747625E+05 J/mol
--->OC6:Equilibrium result:  22 its,  1.0790E-03 s,      1 cc, GS= -4.3747625E+05 J/mol
3Y Testing if any gridpoint is below the calculated equilibrium
--->OC6:--->OC6:
Overwriting previous results on ./OCoutput_matrix.OCU
3E allocating workspace:     122160          (   2160,   10000,    2)
 3E saving            3  symbols as texts
 3E used        12117  words out of       122160  for storing static data
 ceqrecsize not implemented          26
 3E Saving an equilibrium record requires     2853       0 words
 3E not storing unused equilibria from:            2
 3E Saving assessment record
 3E No experimental equilibrium range set
 3E allocating assessment head record          48
 3E no coefficients allocated
 3E no work array (assrec%wopt) allocated
Used    15058 words out of   122160,  12.33% for unformatted memory save
Written workspace      60232 bytes unformatted on ./OCoutput_matrix.OCU
--->OC6:--->OC6:Output on file: ./OCoutput_matrix.DAT
Output unit reset to screen:    6
--->OC6:--->OC6:
[OC output] ./OCoutput_matrix.DAT
----------------------------------------

%%%%%%%%%% OC output written: 2026-04-20  11h29

Output for equilibrium:   1, DEFAULT_EQUILIBRIUM          2026.04.20
Conditions .................................................:
  1:T=1560, 2:P=404000, 3:N(O)=0.664709, 4:N(PU)=.0723917, 5:N(U)=0.2629
 Degrees of freedom are   0

Some global data, reference state SER ......................:
T=   1560.00 K (  1286.85 C), P=  4.0400E+05 Pa, V=  0.0000E+00 m3
N=   1.0000E+00 moles, B=   9.0881E+01 g, RT=   1.2971E+04 J/mol
G= -4.37476E+05 J, G/N=-4.3748E+05 J/mol, H=-3.2530E+05 J, S= 7.191E+01 J/K

Some data for components ...................................:
Component name    Moles      Mole-fr  Chem.pot/RT  Activities  Ref.state
O                 6.6471E-01  0.66471 -1.9539E+01  3.2670E-09  GAS             
PU                7.2392E-02  0.07239 -3.5768E+01  2.9247E-16  SER (default)   
U                 2.6290E-01  0.26290 -3.5521E+01  3.7448E-16  SER (default)   

Some data for phases .......................................:
Name                Status Moles      Volume    Form.Units Cmp/FU dGm/RT  Comp:
C1_MO2#1................ E  1.000E+00  0.00E+00  3.35E-01    2.98  0.00E+00  X:
 O      6.64709E-01  U      2.62900E-01  PU     7.23916E-02

C1_MO2_AUTO#2........... E  0.000E+00  0.00E+00  0.00E+00    2.64  9.45E-07  X:
 O      6.21469E-01  U      2.28867E-01  PU     1.49664E-01


----------------------------------------

[OC parser] Parsed components
  O : moles=0.66471, x=0.66471, mu/RT=-19.539, activity=3.267e-09, ref=GAS
  Pu : moles=0.072392, x=0.07239, mu/RT=-35.768, activity=2.9247e-16, ref=SER (default)
  U : moles=0.2629, x=0.2629, mu/RT=-35.521, activity=3.7448e-16, ref=SER (default)

[OC parser] Parsed phases
  Phase condensed : moles=1, volume=0
    Elements
      O = 3.62151
      Pu = 0.61084
      U = 1.38765
    Species
      C1_MO2 : moles=1, volume=0
        O = 1.64068
        Pu = 0.395113
        U = 0.604209
OpenCalphad attempt for 'at grain boundary' with WARM-START

[OC input] ./OCinput_fission_products.OCM
----------------------------------------
r u ./OCoutput_fission_products.OCU

set ref o gas * 100000

set c t=1560
set c p=404000
set c n(cs)=6.34845e-05
set c n(mo)=0.000115793
set c n(o)=0.999821
c e
set c n(o)=none
set c mu(o)=-506854

c w

save u ./OCoutput_fission_products Y

l /out=./OCoutput_fission_products.DAT r 1

fin
----------------------------------------

3A unfished preparations for XTDB


Open Calphad (OC) software version   6.106 , linked 2026-04-16
with command line monitor version  73

This program is available with a GNU General Public License.
either version 2 of the License, or any later version.
It includes the General Thermodynamic Package, version GTP-3.31,
Hillert's equilibrium calculation algorithm version HMS-3.0 ,
step/map/plot software version SMP-2.30 using GNUPLOT 5.2 graphics.
Numerical routines are extracted from LAPACK and BLAS and
the assessment procedure uses LMDIF from ANL.

Linked with OpenMp for parallel execution
 Warning, no environment variable OCHOME and no help file
 Working directory is: /home/ecappellari/transparant/sciantix-official/regression/test_JOG_MOX/point_06_r_1p7mm
--->OC6:
Read unformatted file: This is a save file for OC version:     OCF-3.20
Generated:  2026.04.20 11h29

 3E reading unformatted:        16527           0           0
3E Addition type   1, Inden-Hillert magn model for BCC_A2
3E Addition type   1, Inden-Hillert magn model for FCC_A1
3E Addition type   1, Inden-Hillert magn model for HCP_A3
 3E no experimental data
 3E no coefficient values saved
 3E Read assessment record
 No coefficients allocated
--->OC6:--->OC6:--->OC6:--->OC6:--->OC6:--->OC6:--->OC6:--->OC6:--->OC6:
Error codes:   4144     0    50
Message: Degrees of freedom not zero

--->OC6:--->OC6:--->OC6:--->OC6:Phase change iteration:     4  +GAS
Phase change iteration:     8  -GAS
Phase change iteration:     9  +GAS
Phase change iteration:    13  -GAS
Phase change iteration:    14  +GAS
Phase change iteration:    18  -GAS
Phase change iteration:    19  +GAS
Phase change iteration:    23  -GAS
Phase change iteration:    24  +GAS
Phase change iteration:    28  -GAS
MM Removing phase:    1   1#1
Phase change iteration:    32  +CS7O1
Phase change iteration:    36  -CS7O1
Phase change iteration:    40  +BCC_A2
Phase change iteration:    44  +HCP_A3
Phase change iteration:    45  +HCP_A3
Phase change iteration:    46  +HCP_A3
Phase change iteration:    47  +HCP_A3
MM Too many stable phases at iter  47, phase   4 replaced by  26, T=  1560.00
Phase change iteration:    51  +BCC_A2
Phase change iteration:    52  +BCC_A2
Phase change iteration:    53  +BCC_A2
Phase change iteration:    54  -LIQUID_AUTO#2
Phase change iteration:    58  +BCC_A2
Phase change iteration:    62  +LIQUID_AUTO#2
Phase change iteration:    63  +LIQUID_AUTO#2
Phase change iteration:    64  +LIQUID_AUTO#2
Phase change iteration:    65  +LIQUID_AUTO#2
MM Too many stable phases at iter  65, phase   4 replaced by   3, T=  1560.00
Phase change iteration:    69  -LIQUID_AUTO#2
MM Removing phase:    4   3#1
MM Restoring phase:      4    3  BCC_A2       4.5978E-01
MM Restoring phase:      1    1  GAS       1.6847E+00
 MM warning, a restored phase wants to be stable:           1

Error codes:   4363     0    50
Message: No equilibrium, a restored phase should be stable

--->OC6:--->OC6:
Overwriting previous results on ./OCoutput_fission_products.OCU
3E allocating workspace:     123330          (   3330,   10000,    2)
 3E saving            3  symbols as texts
 3E used        12286  words out of       123330  for storing static data
 ceqrecsize not implemented          39
 3E Saving an equilibrium record requires     4188       0 words
 3E not storing unused equilibria from:            2
 3E Saving assessment record
 3E No experimental equilibrium range set
 3E allocating assessment head record          48
 3E no coefficients allocated
 3E no work array (assrec%wopt) allocated
Used    16562 words out of   123330,  13.43% for unformatted memory save
Written workspace      66248 bytes unformatted on ./OCoutput_fission_products.OCU
--->OC6:--->OC6:Output on file: ./OCoutput_fission_products.DAT

Output unit reset to screen:    6
--->OC6:--->OC6:
[OC output] ./OCoutput_fission_products.DAT
----------------------------------------

%%%%%%%%%% OC output written: 2026-04-20  11h29

Output for equilibrium:   1, DEFAULT_EQUILIBRIUM          2026.04.20

 *** The results below are not a valid equilibrium as last calculation failed

Conditions .................................................:
  1:T=1560, 2:P=404000, 3:N(CS)=6.34845E-05, 4:N(MO)=.000115793, 5:MU(O)=
    -506854
 Degrees of freedom are   0

Some global data, reference state SER ......................:
T=   1560.00 K (  1286.85 C), P=  4.0400E+05 Pa, V=  0.0000E+00 m3
N=   1.7928E-04 moles, B=   1.9547E-02 g, RT=   1.2971E+04 J/mol
G= -2.01589E+01 J, G/N=-1.1245E+05 J/mol, H= 8.0697E+00 J, S= 1.810E-02 J/K

Some data for components ...................................:
Component name    Moles      Mole-fr  Chem.pot/RT  Activities  Ref.state
CS                6.3484E-05  0.35411 -1.4172E+01  6.9986E-07  SER (default)   
MO                1.1579E-04  0.64589 -5.6521E+00  3.5103E-03  SER (default)   
O                 9.8612E-17  0.00000 -3.9077E+01  1.0692E-17  GAS             

Some data for phases .......................................:
Name                Status Moles      Volume    Form.Units Cmp/FU dGm/RT  Comp:
GAS..................... E  0.000E+00  0.00E+00  0.00E+00    1.14  1.48E+00  X:
 CS     1.00000E+00  O      4.85983E-13  MO     2.84810E-16
Constitution: There are    18 constituents:
 CS           8.62659E-01  O            6.95470E-24  MOO2         1.00000E-30
 CS2          1.37341E-01  MOO          6.43383E-25  MOO3         1.00000E-30
 CS2O         5.52709E-13  CS2O2        2.20553E-30  MO3O9        1.00000E-30
 MO           3.23926E-16  MO4O12       1.00000E-30  O2           1.00000E-30
 CSO          1.93048E-17  MO5O15       1.00000E-30  O3           1.00000E-30
 MO2          5.53767E-23  MO2O6        1.00000E-30  CS2MOO4      1.00000E-30

BCC_A2.................. E  0.000E+00  0.00E+00  0.00E+00    1.00  4.60E-01  X:
 MO     9.93416E-01  CS     6.58412E-03  O      3.30132E-12

HCP_A3.................. E  1.793E-04  0.00E+00  1.79E-04    1.00  0.00E+00  X:
 MO     6.45887E-01  CS     3.54113E-01  O      5.50055E-13


 *** There are phase(s) which would like to be stable:
   GAS  1.4812E+00   BCC_A2  4.5978E-01
 *** The results above are not a valid equilibrium as last calculation failed


----------------------------------------
Warning: OpenCalphad returned an invalid equilibrium for location 'at grain boundary' using WARM-START.
Captured fallback N(O)=9.8612e-17 from invalid MU(O) output for location 'at grain boundary'.
OpenCalphad attempt for 'at grain boundary' with COLD-START

[OC input] ./OCinput_fission_products.OCM
----------------------------------------
@$ Initialize variables:
r t /home/ecappellari/transparant/opencalphad/data/CsMoO_TAFID_2021_Anna cs mo o

set ref o gas * 100000

set c t=1560
set c p=404000
set c n(cs)=6.34845e-05
set c n(mo)=0.000115793
set c n(o)=0.999821
c e
set c n(o)=none
set c mu(o)=-506854

c e
c w
l /out=./OCoutput_fission_products.DAT r 1

fin
----------------------------------------

3A unfished preparations for XTDB


Open Calphad (OC) software version   6.106 , linked 2026-04-16
with command line monitor version  73

This program is available with a GNU General Public License.
either version 2 of the License, or any later version.
It includes the General Thermodynamic Package, version GTP-3.31,
Hillert's equilibrium calculation algorithm version HMS-3.0 ,
step/map/plot software version SMP-2.30 using GNUPLOT 5.2 graphics.
Numerical routines are extracted from LAPACK and BLAS and
the assessment procedure uses LMDIF from ANL.

Linked with OpenMp for parallel execution
 Warning, no environment variable OCHOME and no help file
 Working directory is: /home/ecappellari/transparant/sciantix-official/regression/test_JOG_MOX/point_06_r_1p7mm
--->OC6:--->OC6: 3E Database file extention is: ".tdb"
Database has  3 elements: CS MO O 
Give the elements to select, finish with empty line
Selected  3 elements: CS MO O 
Select elements /no more/:Selected  3 elements: CS MO O 
3E reading database file: /home/ecappellari/transparant/opencalphad/data/CsMoO_TAFID_2021_Anna.TDB

Out of    82 model parameters    82 have been entered


There are     1 bibliographic references
REF0            '*** Not set by database or user'

--->OC6:--->OC6:--->OC6:--->OC6:--->OC6:--->OC6:--->OC6:--->OC6: 3Y Composition set(s) created:            1
Gridmin:    9683 points   1.01E-02 s and      10 clockcycles, T= 1560.00
 3Y leaving global_gridmin
Phase change iteration:     4  -LIQUID_AUTO#2
Phase change iteration:     6  +LIQUID_AUTO#2
Phase change iteration:    11  -LIQUID_AUTO#2
Equilibrium result:  47 its,  1.1864E-02 s,     12 cc, GS= -1.7202064E+05 J/mol
--->OC6:--->OC6:--->OC6:--->OC6:Warning: global minimizer cannot be used for the current set of conditions
Phase change iteration:     4  -GAS
 Error, restoring previously removed phase: GAS
Phase change iteration:     5  +GAS
Phase change iteration:     9  +HCP_A3
Phase change iteration:    10  +HCP_A3
Phase change iteration:    11  +HCP_A3
Phase change iteration:    12  +HCP_A3
MM Too many stable phases at iter  12, phase   2 replaced by  26, T=  1560.00
Phase change iteration:    16  +MC_ETA
Phase change iteration:    17  +MC_ETA
Phase change iteration:    18  +MC_ETA
Phase change iteration:    19  +MC_ETA
MM Too many stable phases at iter  19, phase  26 replaced by  27, T=  1560.00
Phase change iteration:    33  +HCP_A3
MM Removing phase:   26  25#1
Phase change iteration:    35  +FCC_A1
Phase change iteration:    36  +FCC_A1
Phase change iteration:    37  +FCC_A1
MM Too many stable phases at iter  37, phase  27 replaced by  25, T=  1560.00
MM Restoring phase:     26   25  HCP_A3       3.3406E-01
 MM warning, a restored phase wants to be stable:          26

Error codes:   4363     0    50
Message: No equilibrium, a restored phase should be stable

--->OC6:Phase change iteration:     4  +HCP_A3
Phase change iteration:     5  +HCP_A3
Phase change iteration:     6  +HCP_A3
Phase change iteration:     7  +HCP_A3
MM Too many stable phases at iter   7, phase  25 replaced by  26, T=  1560.00
Phase change iteration:    11  +BCC_A2
Phase change iteration:    12  +BCC_A2
Phase change iteration:    13  +BCC_A2
Phase change iteration:    14  +BCC_A2
MM Too many stable phases at iter  14, phase  26 replaced by   4, T=  1560.00
Equilibrium result:  19 its,  8.3700E-04 s,      0 cc, GS= -2.2319869E+01 J/mol
3Y Testing if any gridpoint is below the calculated equilibrium
--->OC6:Output on file: ./OCoutput_fission_products.DAT
Output unit reset to screen:    6
--->OC6:--->OC6:
[OC output] ./OCoutput_fission_products.DAT
----------------------------------------

%%%%%%%%%% OC output written: 2026-04-20  11h29

Output for equilibrium:   1, DEFAULT_EQUILIBRIUM          2026.04.20
Conditions .................................................:
  1:T=1560, 2:P=404000, 3:N(CS)=6.34845E-05, 4:N(MO)=.000115793, 5:MU(O)=
    -506854
 Degrees of freedom are   0

Some global data, reference state SER ......................:
T=   1560.00 K (  1286.85 C), P=  4.0400E+05 Pa, V=  1.9809E-06 m3
N=   1.7928E-04 moles, B=   1.9547E-02 g, RT=   1.2971E+04 J/mol
G= -2.23199E+01 J, G/N=-1.2450E+05 J/mol, H= 1.0550E+01 J, S= 2.107E-02 J/K

Some data for components ...................................:
Component name    Moles      Mole-fr  Chem.pot/RT  Activities  Ref.state
CS                6.3485E-05  0.35411 -1.5967E+01  1.1633E-07  SER (default)   
MO                1.1579E-04  0.64589 -6.1071E+00  2.2271E-03  SER (default)   
O                 3.8931E-16  0.00000 -3.9077E+01  1.0692E-17  GAS             

Some data for phases .......................................:
Name                Status Moles      Volume    Form.Units Cmp/FU dGm/RT  Comp:
GAS..................... E  6.329E-05  1.98E-06  6.17E-05    1.03  0.00E+00  X:
 CS     1.00000E+00  O      1.01167E-13  MO     1.36118E-15
Constitution: There are    18 constituents:
 CS           9.74219E-01  O            4.72505E-23  MOO2         1.00000E-30
 CS2          2.57814E-02  MOO          2.77327E-24  MOO3         1.00000E-30
 CS2O         1.03754E-13  MO3O9        1.00000E-30  CS2O2        1.00000E-30
 MO           1.39627E-15  MO4O12       1.00000E-30  O2           1.00000E-30
 CSO          2.18013E-17  MO5O15       1.00000E-30  O3           1.00000E-30
 MO2          1.51442E-22  MO2O6        1.00000E-30  CS2MOO4      1.00000E-30

BCC_A2.................. E  1.160E-04  0.00E+00  1.16E-04    1.00  0.00E+00  X:
 MO     9.98331E-01  CS     1.66908E-03  O      3.30132E-12


----------------------------------------

[OC parser] Parsed components
  Cs : moles=6.3485e-05, x=0.35411, mu/RT=-15.967, activity=1.1633e-07, ref=SER (default)
  Mo : moles=0.00011579, x=0.64589, mu/RT=-6.1071, activity=0.0022271, ref=SER (default)
  O : moles=3.8931e-16, x=0, mu/RT=-39.077, activity=1.0692e-17, ref=GAS

[OC parser] Parsed phases
  Phase condensed : moles=0.000116, volume=0
    Elements
      Cs = 1.93613e-07
      Mo = 0.000115806
      O = 3.82953e-16
    Species
      BCC_A2 : moles=0.000116, volume=0
        Cs = 1.93613e-07
        Mo = 0.000115806
        O = 3.82953e-16
  Phase gas : moles=6.329e-05, volume=1.98e-06
    Elements
      Cs = 6.329e-05
      Mo = 8.61491e-20
      O = 6.40286e-18
    Species
      CS : moles=6.16583e-05, volume=0
      CS2 : moles=1.6317e-06, volume=0
      CS2MOO4 : moles=6.329e-35, volume=0
      CS2O : moles=6.56659e-18, volume=0
      CS2O2 : moles=6.329e-35, volume=0
      CSO : moles=1.3798e-21, volume=0
      MO : moles=8.83699e-20, volume=0
      MO2 : moles=9.58476e-27, volume=0
      MO2O6 : moles=6.329e-35, volume=0
      MO3O9 : moles=6.329e-35, volume=0
      MO4O12 : moles=6.329e-35, volume=0
      MO5O15 : moles=6.329e-35, volume=0
      MOO : moles=1.7552e-28, volume=0
      MOO2 : moles=6.329e-35, volume=0
      MOO3 : moles=6.329e-35, volume=0
      O : moles=2.99048e-27, volume=0
      O2 : moles=6.329e-35, volume=0
      O3 : moles=6.329e-35, volume=0
      are : moles=0.00113922, volume=0
OpenCalphad attempt for 'matrix' with WARM-START

[OC input] ./OCinput_matrix.OCM
----------------------------------------
r u ./OCoutput_matrix.OCU

set ref o gas * 100000

set c t=1560
set c p=472000
set c n(o)=0.66499
set c n(pu)=0.0719989
set c n(u)=0.263011
c e
c w

save u ./OCoutput_matrix Y

l /out=./OCoutput_matrix.DAT r 1

fin
----------------------------------------

3A unfished preparations for XTDB


Open Calphad (OC) software version   6.106 , linked 2026-04-16
with command line monitor version  73

This program is available with a GNU General Public License.
either version 2 of the License, or any later version.
It includes the General Thermodynamic Package, version GTP-3.31,
Hillert's equilibrium calculation algorithm version HMS-3.0 ,
step/map/plot software version SMP-2.30 using GNUPLOT 5.2 graphics.
Numerical routines are extracted from LAPACK and BLAS and
the assessment procedure uses LMDIF from ANL.

Linked with OpenMp for parallel execution
 Warning, no environment variable OCHOME and no help file
 Working directory is: /home/ecappellari/transparant/sciantix-official/regression/test_JOG_MOX/point_06_r_1p7mm
--->OC6:
Read unformatted file: This is a save file for OC version:     OCF-3.20
Generated:  2026.04.20 11h29

 3E reading unformatted:        15023           0           0
3E Addition type   1, Inden-Hillert magn model for BCC_A2
3E Addition type   1, Inden-Hillert magn model for FCC_A1
 3E no experimental data
 3E no coefficient values saved
 3E Read assessment record
 No coefficients allocated
--->OC6:--->OC6:--->OC6:--->OC6:--->OC6:--->OC6:--->OC6:--->OC6:--->OC6:3Y Removed  1 gridpoints by merging
Gridmin:    7483 points   9.06E-03 s and       7 clockcycles, T= 1560.00
 3Y leaving global_gridmin
Phase change iteration:     4  -C1_MO2_AUTO#2
Equilibrium result:  18 its,  9.9210E-03 s,     10 cc, GS= -4.3746348E+05 J/mol
--->OC6:Equilibrium result:   9 its,  3.4800E-04 s,      0 cc, GS= -4.3746345E+05 J/mol
3Y Testing if any gridpoint is below the calculated equilibrium
--->OC6:--->OC6:
Overwriting previous results on ./OCoutput_matrix.OCU
3E allocating workspace:     122160          (   2160,   10000,    2)
 3E saving            3  symbols as texts
 3E used        12117  words out of       122160  for storing static data
 ceqrecsize not implemented          26
 3E Saving an equilibrium record requires     2854       0 words
 3E not storing unused equilibria from:            2
 3E Saving assessment record
 3E No experimental equilibrium range set
 3E allocating assessment head record          48
 3E no coefficients allocated
 3E no work array (assrec%wopt) allocated
Used    15059 words out of   122160,  12.33% for unformatted memory save
Written workspace      60236 bytes unformatted on ./OCoutput_matrix.OCU
--->OC6:--->OC6:Output on file: ./OCoutput_matrix.DAT
Output unit reset to screen:    6
--->OC6:--->OC6:
[OC output] ./OCoutput_matrix.DAT
----------------------------------------

%%%%%%%%%% OC output written: 2026-04-20  11h29

Output for equilibrium:   1, DEFAULT_EQUILIBRIUM          2026.04.20
Conditions .................................................:
  1:T=1560, 2:P=472000, 3:N(O)=0.66499, 4:N(PU)=.0719989, 5:N(U)=0.263011
 Degrees of freedom are   0

Some global data, reference state SER ......................:
T=   1560.00 K (  1286.85 C), P=  4.7200E+05 Pa, V=  0.0000E+00 m3
N=   1.0000E+00 moles, B=   9.0816E+01 g, RT=   1.2971E+04 J/mol
G= -4.37463E+05 J, G/N=-4.3746E+05 J/mol, H=-3.2538E+05 J, S= 7.185E+01 J/K

Some data for components ...................................:
Component name    Moles      Mole-fr  Chem.pot/RT  Activities  Ref.state
O                 6.6499E-01  0.66499 -1.9380E+01  3.8323E-09  GAS             
PU                7.1999E-02  0.07200 -3.6227E+01  1.8494E-16  SER (default)   
U                 2.6301E-01  0.26301 -3.5995E+01  2.3304E-16  SER (default)   

Some data for phases .......................................:
Name                Status Moles      Volume    Form.Units Cmp/FU dGm/RT  Comp:
C1_MO2#1................ E  1.000E+00  0.00E+00  3.35E-01    2.98  0.00E+00  X:
 O      6.64990E-01  U      2.63011E-01  PU     7.19989E-02


----------------------------------------

[OC parser] Parsed components
  O : moles=0.66499, x=0.66499, mu/RT=-19.38, activity=3.8323e-09, ref=GAS
  Pu : moles=0.071999, x=0.072, mu/RT=-36.227, activity=1.8494e-16, ref=SER (default)
  U : moles=0.26301, x=0.26301, mu/RT=-35.995, activity=2.3304e-16, ref=SER (default)

[OC parser] Parsed phases
  Phase condensed : moles=1, volume=0
    Elements
      O = 1.98167
      Pu = 0.214557
      U = 0.783773
    Species
      C1_MO2 : moles=1, volume=0
        O = 1.98167
        Pu = 0.214557
        U = 0.783773
OpenCalphad attempt for 'at grain boundary' with WARM-START

[OC input] ./OCinput_fission_products.OCM
----------------------------------------
r u ./OCoutput_fission_products.OCU

set ref o gas * 100000

set c t=1560
set c p=472000
set c n(cs)=6.37645e-05
set c n(mo)=0.000171639
set c n(o)=0.999765
c e
set c n(o)=none
set c mu(o)=-502729

c w

save u ./OCoutput_fission_products Y

l /out=./OCoutput_fission_products.DAT r 1

fin
----------------------------------------

3A unfished preparations for XTDB


Open Calphad (OC) software version   6.106 , linked 2026-04-16
with command line monitor version  73

This program is available with a GNU General Public License.
either version 2 of the License, or any later version.
It includes the General Thermodynamic Package, version GTP-3.31,
Hillert's equilibrium calculation algorithm version HMS-3.0 ,
step/map/plot software version SMP-2.30 using GNUPLOT 5.2 graphics.
Numerical routines are extracted from LAPACK and BLAS and
the assessment procedure uses LMDIF from ANL.

Linked with OpenMp for parallel execution
 Warning, no environment variable OCHOME and no help file
 Working directory is: /home/ecappellari/transparant/sciantix-official/regression/test_JOG_MOX/point_06_r_1p7mm
--->OC6:
Read unformatted file: This is a save file for OC version:     OCF-3.20
Generated:  2026.04.20 11h29

 3E reading unformatted:        16527           0           0
3E Addition type   1, Inden-Hillert magn model for BCC_A2
3E Addition type   1, Inden-Hillert magn model for FCC_A1
3E Addition type   1, Inden-Hillert magn model for HCP_A3
 3E no experimental data
 3E no coefficient values saved
 3E Read assessment record
 No coefficients allocated
--->OC6:--->OC6:--->OC6:--->OC6:--->OC6:--->OC6:--->OC6:--->OC6:--->OC6:
Error codes:   4144     0    50
Message: Degrees of freedom not zero

--->OC6:--->OC6:--->OC6:--->OC6:Phase change iteration:     4  +GAS
Phase change iteration:     8  +BCC_A2
Phase change iteration:     9  +BCC_A2
Phase change iteration:    10  +BCC_A2
Phase change iteration:    11  +BCC_A2
MM Too many stable phases at iter  11, phase  26 replaced by   4, T=  1560.00
Equilibrium result:  16 its,  7.7000E-04 s,      1 cc, GS= -2.6676982E+01 J/mol
3Y Testing if any gridpoint is below the calculated equilibrium
--->OC6:--->OC6:
Overwriting previous results on ./OCoutput_fission_products.OCU
3E allocating workspace:     123330          (   3330,   10000,    2)
 3E saving            3  symbols as texts
 3E used        12286  words out of       123330  for storing static data
 ceqrecsize not implemented          39
 3E Saving an equilibrium record requires     4188       0 words
 3E not storing unused equilibria from:            2
 3E Saving assessment record
 3E No experimental equilibrium range set
 3E allocating assessment head record          48
 3E no coefficients allocated
 3E no work array (assrec%wopt) allocated
[...]
Warning: No composition information available for thermochemistry variable CS7O1 (condensed, at grain boundary). Molar mass cannot be computed and will be returned as zero.
Warning: No composition information available for thermochemistry variable CS7O2 (condensed, at grain boundary). Molar mass cannot be computed and will be returned as zero.
Warning: No composition information available for thermochemistry variable CSO2 (condensed, at grain boundary). Molar mass cannot be computed and will be returned as zero.
Warning: No composition information available for thermochemistry variable CSO3 (condensed, at grain boundary). Molar mass cannot be computed and will be returned as zero.
Warning: No composition information available for thermochemistry variable DIAMOND_A4 (condensed, at grain boundary). Molar mass cannot be computed and will be returned as zero.
Warning: No composition information available for thermochemistry variable DIS_SIG (condensed, at grain boundary). Molar mass cannot be computed and will be returned as zero.
Warning: No composition information available for thermochemistry variable FCC_A1 (condensed, at grain boundary). Molar mass cannot be computed and will be returned as zero.
Warning: No composition information available for thermochemistry variable HCP_A3 (condensed, at grain boundary). Molar mass cannot be computed and will be returned as zero.
Warning: No composition information available for thermochemistry variable MC_ETA (condensed, at grain boundary). Molar mass cannot be computed and will be returned as zero.
Warning: No composition information available for thermochemistry variable MO4O11 (condensed, at grain boundary). Molar mass cannot be computed and will be returned as zero.
Warning: No composition information available for thermochemistry variable MO8O23 (condensed, at grain boundary). Molar mass cannot be computed and will be returned as zero.
Warning: No composition information available for thermochemistry variable MO9O26 (condensed, at grain boundary). Molar mass cannot be computed and will be returned as zero.
Warning: No composition information available for thermochemistry variable MOO2 (condensed, at grain boundary). Molar mass cannot be computed and will be returned as zero.
Warning: No composition information available for thermochemistry variable MOO3 (condensed, at grain boundary). Molar mass cannot be computed and will be returned as zero.
Warning: No composition information available for thermochemistry variable ORTHORHOMBIC_A20 (condensed, at grain boundary). Molar mass cannot be computed and will be returned as zero.
Warning: No composition information available for thermochemistry variable SIGMA (condensed, at grain boundary). Molar mass cannot be computed and will be returned as zero.
Warning: No composition information available for thermochemistry variable TETRAGONAL_U (condensed, at grain boundary). Molar mass cannot be computed and will be returned as zero.
Warning: No composition information available for thermochemistry variable UO3 (condensed, at grain boundary). Molar mass cannot be computed and will be returned as zero.
Warning: No composition information available for thermochemistry variable U4O9_S1 (condensed, at grain boundary). Molar mass cannot be computed and will be returned as zero.
Warning: No composition information available for thermochemistry variable U4O9_S2 (condensed, at grain boundary). Molar mass cannot be computed and will be returned as zero.
Warning: No composition information available for thermochemistry variable U4O9_S3 (condensed, at grain boundary). Molar mass cannot be computed and will be returned as zero.
Warning: No composition information available for thermochemistry variable U3O8_S1 (condensed, at grain boundary). Molar mass cannot be computed and will be returned as zero.
Warning: No composition information available for thermochemistry variable U3O8_S2 (condensed, at grain boundary). Molar mass cannot be computed and will be returned as zero.
Warning: No composition information available for thermochemistry variable U3O8_S3 (condensed, at grain boundary). Molar mass cannot be computed and will be returned as zero.
Warning: No composition information available for thermochemistry variable U3O8_S4 (condensed, at grain boundary). Molar mass cannot be computed and will be returned as zero.
STOP Au revoir
STOP Au revoir
Warning: No composition information available for thermochemistry variable UO2:VA (ionic_liquid, at grain boundary). Molar mass cannot be computed and will be returned as zero.
Warning: No composition information available for thermochemistry variable U (ionic_liquid, at grain boundary). Molar mass cannot be computed and will be returned as zero.
Warning: No composition information available for thermochemistry variable O (ionic_liquid, at grain boundary). Molar mass cannot be computed and will be returned as zero.
Warning: No composition information available for thermochemistry variable BCC_A2 (condensed, at grain boundary). Molar mass cannot be computed and will be returned as zero.
Warning: No composition information available for thermochemistry variable C1_MO2 (condensed, at grain boundary). Molar mass cannot be computed and will be returned as zero.
Warning: No composition information available for thermochemistry variable C14_LAVES (condensed, at grain boundary). Molar mass cannot be computed and will be returned as zero.
Warning: No composition information available for thermochemistry variable C15_LAVES (condensed, at grain boundary). Molar mass cannot be computed and will be returned as zero.
Warning: No composition information available for thermochemistry variable CS2MO2O7_S1 (condensed, at grain boundary). Molar mass cannot be computed and will be returned as zero.
Warning: No composition information available for thermochemistry variable CS2MO2O7_S2 (condensed, at grain boundary). Molar mass cannot be computed and will be returned as zero.
Warning: No composition information available for thermochemistry variable CS2MO3O10 (condensed, at grain boundary). Molar mass cannot be computed and will be returned as zero.
Warning: No composition information available for thermochemistry variable CS2MO4O13 (condensed, at grain boundary). Molar mass cannot be computed and will be returned as zero.
Warning: No composition information available for thermochemistry variable CS2MO5O16 (condensed, at grain boundary). Molar mass cannot be computed and will be returned as zero.
Warning: No composition information available for thermochemistry variable CS2MO7O22 (condensed, at grain boundary). Molar mass cannot be computed and will be returned as zero.
Warning: No composition information available for thermochemistry variable CS2MOO4_S1 (condensed, at grain boundary). Molar mass cannot be computed and will be returned as zero.
Warning: No composition information available for thermochemistry variable CS2MOO4_S2 (condensed, at grain boundary). Molar mass cannot be computed and will be returned as zero.
Warning: No composition information available for thermochemistry variable CS2O1 (condensed, at grain boundary). Molar mass cannot be computed and will be returned as zero.
Warning: No composition information available for thermochemistry variable CS2O2 (condensed, at grain boundary). Molar mass cannot be computed and will be returned as zero.
Warning: No composition information available for thermochemistry variable CS3O (condensed, at grain boundary). Molar mass cannot be computed and will be returned as zero.
Warning: No composition information available for thermochemistry variable CS4O (condensed, at grain boundary). Molar mass cannot be computed and will be returned as zero.
Warning: No composition information available for thermochemistry variable CS7O1 (condensed, at grain boundary). Molar mass cannot be computed and will be returned as zero.
Warning: No composition information available for thermochemistry variable CS7O2 (condensed, at grain boundary). Molar mass cannot be computed and will be returned as zero.
Warning: No composition information available for thermochemistry variable CSO2 (condensed, at grain boundary). Molar mass cannot be computed and will be returned as zero.
Warning: No composition information available for thermochemistry variable CSO3 (condensed, at grain boundary). Molar mass cannot be computed and will be returned as zero.
Warning: No composition information available for thermochemistry variable DIAMOND_A4 (condensed, at grain boundary). Molar mass cannot be computed and will be returned as zero.
Warning: No composition information available for thermochemistry variable DIS_SIG (condensed, at grain boundary). Molar mass cannot be computed and will be returned as zero.
Warning: No composition information available for thermochemistry variable FCC_A1 (condensed, at grain boundary). Molar mass cannot be computed and will be returned as zero.
Warning: No composition information available for thermochemistry variable HCP_A3 (condensed, at grain boundary). Molar mass cannot be computed and will be returned as zero.
Warning: No composition information available for thermochemistry variable MC_ETA (condensed, at grain boundary). Molar mass cannot be computed and will be returned as zero.
Warning: No composition information available for thermochemistry variable MO4O11 (condensed, at grain boundary). Molar mass cannot be computed and will be returned as zero.
Warning: No composition information available for thermochemistry variable MO8O23 (condensed, at grain boundary). Molar mass cannot be computed and will be returned as zero.
Warning: No composition information available for thermochemistry variable MO9O26 (condensed, at grain boundary). Molar mass cannot be computed and will be returned as zero.
Warning: No composition information available for thermochemistry variable MOO2 (condensed, at grain boundary). Molar mass cannot be computed and will be returned as zero.
Warning: No composition information available for thermochemistry variable MOO3 (condensed, at grain boundary). Molar mass cannot be computed and will be returned as zero.
Warning: No composition information available for thermochemistry variable ORTHORHOMBIC_A20 (condensed, at grain boundary). Molar mass cannot be computed and will be returned as zero.
Warning: No composition information available for thermochemistry variable SIGMA (condensed, at grain boundary). Molar mass cannot be computed and will be returned as zero.
Warning: No composition information available for thermochemistry variable TETRAGONAL_U (condensed, at grain boundary). Molar mass cannot be computed and will be returned as zero.
Warning: No composition information available for thermochemistry variable UO3 (condensed, at grain boundary). Molar mass cannot be computed and will be returned as zero.
Warning: No composition information available for thermochemistry variable U4O9_S1 (condensed, at grain boundary). Molar mass cannot be computed and will be returned as zero.
Warning: No composition information available for thermochemistry variable U4O9_S2 (condensed, at grain boundary). Molar mass cannot be computed and will be returned as zero.
Warning: No composition information available for thermochemistry variable U4O9_S3 (condensed, at grain boundary). Molar mass cannot be computed and will be returned as zero.
Warning: No composition information available for thermochemistry variable U3O8_S1 (condensed, at grain boundary). Molar mass cannot be computed and will be returned as zero.
Warning: No composition information available for thermochemistry variable U3O8_S2 (condensed, at grain boundary). Molar mass cannot be computed and will be returned as zero.
Warning: No composition information available for thermochemistry variable U3O8_S3 (condensed, at grain boundary). Molar mass cannot be computed and will be returned as zero.
Warning: No composition information available for thermochemistry variable U3O8_S4 (condensed, at grain boundary). Molar mass cannot be computed and will be returned as zero.
STOP Au revoir
STOP Au revoir
STOP Au revoir
Warning: No composition information available for thermochemistry variable UO2:VA (ionic_liquid, at grain boundary). Molar mass cannot be computed and will be returned as zero.
Warning: No composition information available for thermochemistry variable U (ionic_liquid, at grain boundary). Molar mass cannot be computed and will be returned as zero.
Warning: No composition information available for thermochemistry variable O (ionic_liquid, at grain boundary). Molar mass cannot be computed and will be returned as zero.
Warning: No composition information available for thermochemistry variable BCC_A2 (condensed, at grain boundary). Molar mass cannot be computed and will be returned as zero.
Warning: No composition information available for thermochemistry variable C1_MO2 (condensed, at grain boundary). Molar mass cannot be computed and will be returned as zero.
Warning: No composition information available for thermochemistry variable C14_LAVES (condensed, at grain boundary). Molar mass cannot be computed and will be returned as zero.
Warning: No composition information available for thermochemistry variable C15_LAVES (condensed, at grain boundary). Molar mass cannot be computed and will be returned as zero.
Warning: No composition information available for thermochemistry variable CS2MO2O7_S1 (condensed, at grain boundary). Molar mass cannot be computed and will be returned as zero.
Warning: No composition information available for thermochemistry variable CS2MO2O7_S2 (condensed, at grain boundary). Molar mass cannot be computed and will be returned as zero.
Warning: No composition information available for thermochemistry variable CS2MO3O10 (condensed, at grain boundary). Molar mass cannot be computed and will be returned as zero.
Warning: No composition information available for thermochemistry variable CS2MO4O13 (condensed, at grain boundary). Molar mass cannot be computed and will be returned as zero.
Warning: No composition information available for thermochemistry variable CS2MO5O16 (condensed, at grain boundary). Molar mass cannot be computed and will be returned as zero.
Warning: No composition information available for thermochemistry variable CS2MO7O22 (condensed, at grain boundary). Molar mass cannot be computed and will be returned as zero.
Warning: No composition information available for thermochemistry variable CS2MOO4_S1 (condensed, at grain boundary). Molar mass cannot be computed and will be returned as zero.
Warning: No composition information available for thermochemistry variable CS2MOO4_S2 (condensed, at grain boundary). Molar mass cannot be computed and will be returned as zero.
Warning: No composition information available for thermochemistry variable CS2O1 (condensed, at grain boundary). Molar mass cannot be computed and will be returned as zero.
Warning: No composition information available for thermochemistry variable CS2O2 (condensed, at grain boundary). Molar mass cannot be computed and will be returned as zero.
Warning: No composition information available for thermochemistry variable CS3O (condensed, at grain boundary). Molar mass cannot be computed and will be returned as zero.
Warning: No composition information available for thermochemistry variable CS4O (condensed, at grain boundary). Molar mass cannot be computed and will be returned as zero.
Warning: No composition information available for thermochemistry variable CS7O1 (condensed, at grain boundary). Molar mass cannot be computed and will be returned as zero.
Warning: No composition information available for thermochemistry variable CS7O2 (condensed, at grain boundary). Molar mass cannot be computed and will be returned as zero.
Warning: No composition information available for thermochemistry variable CSO2 (condensed, at grain boundary). Molar mass cannot be computed and will be returned as zero.
Warning: No composition information available for thermochemistry variable CSO3 (condensed, at grain boundary). Molar mass cannot be computed and will be returned as zero.
Warning: No composition information available for thermochemistry variable DIAMOND_A4 (condensed, at grain boundary). Molar mass cannot be computed and will be returned as zero.
Warning: No composition information available for thermochemistry variable DIS_SIG (condensed, at grain boundary). Molar mass cannot be computed and will be returned as zero.
Warning: No composition information available for thermochemistry variable FCC_A1 (condensed, at grain boundary). Molar mass cannot be computed and will be returned as zero.
Warning: No composition information available for thermochemistry variable HCP_A3 (condensed, at grain boundary). Molar mass cannot be computed and will be returned as zero.
Warning: No composition information available for thermochemistry variable MC_ETA (condensed, at grain boundary). Molar mass cannot be computed and will be returned as zero.
Warning: No composition information available for thermochemistry variable MO4O11 (condensed, at grain boundary). Molar mass cannot be computed and will be returned as zero.
Warning: No composition information available for thermochemistry variable MO8O23 (condensed, at grain boundary). Molar mass cannot be computed and will be returned as zero.
Warning: No composition information available for thermochemistry variable MO9O26 (condensed, at grain boundary). Molar mass cannot be computed and will be returned as zero.
Warning: No composition information available for thermochemistry variable MOO2 (condensed, at grain boundary). Molar mass cannot be computed and will be returned as zero.
Warning: No composition information available for thermochemistry variable MOO3 (condensed, at grain boundary). Molar mass cannot be computed and will be returned as zero.
Warning: No composition information available for thermochemistry variable ORTHORHOMBIC_A20 (condensed, at grain boundary). Molar mass cannot be computed and will be returned as zero.
Warning: No composition information available for thermochemistry variable SIGMA (condensed, at grain boundary). Molar mass cannot be computed and will be returned as zero.
Warning: No composition information available for thermochemistry variable TETRAGONAL_U (condensed, at grain boundary). Molar mass cannot be computed and will be returned as zero.
Warning: No composition information available for thermochemistry variable UO3 (condensed, at grain boundary). Molar mass cannot be computed and will be returned as zero.
Warning: No composition information available for thermochemistry variable U4O9_S1 (condensed, at grain boundary). Molar mass cannot be computed and will be returned as zero.
Warning: No composition information available for thermochemistry variable U4O9_S2 (condensed, at grain boundary). Molar mass cannot be computed and will be returned as zero.
Warning: No composition information available for thermochemistry variable U4O9_S3 (condensed, at grain boundary). Molar mass cannot be computed and will be returned as zero.
Warning: No composition information available for thermochemistry variable U3O8_S1 (condensed, at grain boundary). Molar mass cannot be computed and will be returned as zero.
Warning: No composition information available for thermochemistry variable U3O8_S2 (condensed, at grain boundary). Molar mass cannot be computed and will be returned as zero.
Warning: No composition information available for thermochemistry variable U3O8_S3 (condensed, at grain boundary). Molar mass cannot be computed and will be returned as zero.
Warning: No composition information available for thermochemistry variable U3O8_S4 (condensed, at grain boundary). Molar mass cannot be computed and will be returned as zero.
