Use ./sciantix.x ../input_path/ in the working directory
OpenCalphad attempt for 'matrix' with WARM-START

[OC input] ./OCinput_matrix.OCM
----------------------------------------
@$ Initialize variables:
r t /home/ecappellari/transparant/opencalphad/data/O-Pu-UPaper o pu u

set ref o gas * 100000

set c t=1290
set c p=200000
set c n(o)=0.663866
set c n(pu)=0.0963509
set c n(u)=0.239784
c e
c w

save u ./OCoutput_matrix Y

l /out=./OCoutput_matrix.DAT r 1

fin
----------------------------------------

3A unfished preparations for XTDB


Open Calphad (OC) software version   6.106 , linked 2026-04-16
with command line monitor version  73

This program is available with a GNU General Public License.
either version 2 of the License, or any later version.
It includes the General Thermodynamic Package, version GTP-3.31,
Hillert's equilibrium calculation algorithm version HMS-3.0 ,
step/map/plot software version SMP-2.30 using GNUPLOT 5.2 graphics.
Numerical routines are extracted from LAPACK and BLAS and
the assessment procedure uses LMDIF from ANL.

Linked with OpenMp for parallel execution
 Warning, no environment variable OCHOME and no help file
 Working directory is: /home/ecappellari/transparant/sciantix-official/regression/test_JOG_MOX/point_08_r_2p3mm
--->OC6:--->OC6: 3E Database file extention is: ".tdb"

This database has information to users, please read carefully
Database modified by Pauline Fouquet-Metivier et al, Calphad (2022)
Only for the liquid phase of Pu-O and U-Pu-O systems

 ELEMENT /-   ELECTRON_GAS              0.0000E+00  0.0000E+00  0.0000E+00!

Database has  5 elements: O  PU U  AR N 
Give the elements to select, finish with empty line
Selected  3 elements: O  PU U 
Select elements /no more/:Selected  3 elements: O  PU U 
3E reading database file: /home/ecappellari/transparant/opencalphad/data/O-Pu-UPaper.TDB
 3B insering interaction before existing F

Out of   115 model parameters   108 have been entered


There are    17 bibliographic references
REF161          '*** Not set by database or user'
REF178          '*** Not set by database or user'
REF175          '*** Not set by database or user'
REF176          '*** Not set by database or user'
REF177          '*** Not set by database or user'
REF203          'O1PU1<G> T.C.R.A.S. Class: 6, from SSUB, id to Tbase'
REF204          'O2PU1<G> T.C.R.A.S. Class: 7 PLUTONIUM DIOXIDE <GAS>, from 
                 SSUB, id to Tbase'
REF209          'O1U1<G> T.C.R.A.S Class: 6 Data provided by T.C.R.A.S. in 
                 2000, from SSUB, different of Tbase'
REF210          'O2U1<G> T.C.R.A.S. Class: 6 URANIUM DIOXIDE <GAS>, from 
                 SSUB, slightly different of Tbase'
REF211          'O3U1<G> T.C.R.A.S Class: 6 Data provided by T.C.R.A.S. in 
                 2000, from SSUB, different of Tbase'
REF10           'A T Dinsdale, SGTE Data for Pure Elements, Calphad 15(1991)4 
                 p 317-425; also in NPL Report DMA(A)195 Rev. August 1990'
FOUQ            'P. Fouquet-Metivier et al, Calphad (2022)'
REF412          'C. Gueneau, N. Dupin, B. Sundman, C. Martial, J.-C. Dumas, 
                 S. Gosse, S. Chatain, F. De Bruycker, D. Manara, R.J.M. 
                 Konings, J. Nucl. Mat. 419 (1-3), 145-167 (2011); C-O-Pu-U'
REF37           'M. Kurata, Calphad, 23 (3-4), 305-337 1999'
REF115          '*** Not set by database or user'
REF92           'N. Dupin, Contrat CEA 4000294936/P5B73 Np-Pu Fuelbase, 
                 february REF115'
REF137          '*** Not set by database or user'

--->OC6:--->OC6:--->OC6:--->OC6:--->OC6:--->OC6:--->OC6:--->OC6:3Y Removed  2 gridpoints by merging
Gridmin:    7483 points   1.75E-02 s and      15 clockcycles, T= 1290.00
 3Y leaving global_gridmin
Equilibrium result:  16 its,  1.8583E-02 s,     19 cc, GS= -4.1872774E+05 J/mol
--->OC6:Equilibrium result:   9 its,  5.2900E-04 s,      1 cc, GS= -4.1872774E+05 J/mol
3Y Testing if any gridpoint is below the calculated equilibrium
--->OC6:--->OC6:3E allocating workspace:     122160          (   2160,   10000,    2)
 3E saving            3  symbols as texts
 3E used        12112  words out of       122160  for storing static data
 ceqrecsize not implemented          25
 3E Saving an equilibrium record requires     2613       0 words
 3E not storing unused equilibria from:            2
 3E Saving assessment record
 3E No experimental equilibrium range set
 3E allocating assessment head record          48
 3E no coefficients allocated
 3E no work array (assrec%wopt) allocated
Used    14813 words out of   122160,  12.13% for unformatted memory save
Written workspace      59252 bytes unformatted on ./OCoutput_matrix.OCU
--->OC6:--->OC6:Output on file: ./OCoutput_matrix.DAT
Output unit reset to screen:    6
--->OC6:--->OC6:
[OC output] ./OCoutput_matrix.DAT
----------------------------------------

%%%%%%%%%% OC output written: 2026-04-19  21h34

Output for equilibrium:   1, DEFAULT_EQUILIBRIUM          2026.04.19
Conditions .................................................:
  1:T=1290, 2:P=200000, 3:N(O)=0.663866, 4:N(PU)=.0963509, 5:N(U)=0.239784
 Degrees of freedom are   0

Some global data, reference state SER ......................:
T=   1290.00 K (  1016.85 C), P=  2.0000E+05 Pa, V=  0.0000E+00 m3
N=   1.0000E+00 moles, B=   9.1212E+01 g, RT=   1.0726E+04 J/mol
G= -4.18728E+05 J, G/N=-4.1873E+05 J/mol, H=-3.3295E+05 J, S= 6.650E+01 J/K

Some data for components ...................................:
Component name    Moles      Mole-fr  Chem.pot/RT  Activities  Ref.state
O                 6.6387E-01  0.66387 -2.6593E+01  2.8222E-12  GAS             
PU                9.6351E-02  0.09635 -3.6891E+01  9.5115E-17  SER (default)   
U                 2.3978E-01  0.23978 -3.7522E+01  5.0649E-17  SER (default)   

Some data for phases .......................................:
Name                Status Moles      Volume    Form.Units Cmp/FU dGm/RT  Comp:
C1_MO2.................. E  1.000E+00  0.00E+00  3.36E-01    2.97  0.00E+00  X:
 O      6.63865E-01  U      2.39784E-01  PU     9.63508E-02


----------------------------------------

[OC parser] Parsed components
  O : moles=0.66387, x=0.66387, mu/RT=-26.593, activity=2.8222e-12, ref=GAS
  Pu : moles=0.096351, x=0.09635, mu/RT=-36.891, activity=9.5115e-17, ref=SER (default)
  U : moles=0.23978, x=0.23978, mu/RT=-37.522, activity=5.0649e-17, ref=SER (default)

[OC parser] Parsed phases
  Phase condensed : moles=1, volume=0
    Elements
      O = 0.663865
      Pu = 0.0963508
      U = 0.239784
    Species
      C1_MO2 : moles=1, volume=0
        O = 0.663865
        Pu = 0.0963508
        U = 0.239784
OpenCalphad attempt for 'matrix' with WARM-START

[OC input] ./OCinput_matrix.OCM
----------------------------------------
r u ./OCoutput_matrix.OCU

set ref o gas * 100000

set c t=1290
set c p=268000
set c n(o)=0.664146
set c n(pu)=0.0959685
set c n(u)=0.239885
c e
c w

save u ./OCoutput_matrix Y

l /out=./OCoutput_matrix.DAT r 1

fin
----------------------------------------

3A unfished preparations for XTDB


Open Calphad (OC) software version   6.106 , linked 2026-04-16
with command line monitor version  73

This program is available with a GNU General Public License.
either version 2 of the License, or any later version.
It includes the General Thermodynamic Package, version GTP-3.31,
Hillert's equilibrium calculation algorithm version HMS-3.0 ,
step/map/plot software version SMP-2.30 using GNUPLOT 5.2 graphics.
Numerical routines are extracted from LAPACK and BLAS and
the assessment procedure uses LMDIF from ANL.

Linked with OpenMp for parallel execution
 Warning, no environment variable OCHOME and no help file
 Working directory is: /home/ecappellari/transparant/sciantix-official/regression/test_JOG_MOX/point_08_r_2p3mm
--->OC6:
Read unformatted file: This is a save file for OC version:     OCF-3.20
Generated:  2026.04.19 21h34

 3E reading unformatted:        14778           0           0
3E Addition type   1, Inden-Hillert magn model for BCC_A2
3E Addition type   1, Inden-Hillert magn model for FCC_A1
 3E no experimental data
 3E no coefficient values saved
 3E Read assessment record
 No coefficients allocated
--->OC6:--->OC6:--->OC6:--->OC6:--->OC6:--->OC6:--->OC6:--->OC6:--->OC6:3Y Removed  2 gridpoints by merging
Gridmin:    7483 points   2.01E-02 s and      18 clockcycles, T= 1290.00
 3Y leaving global_gridmin
Equilibrium result:  14 its,  2.1105E-02 s,     21 cc, GS= -4.1873595E+05 J/mol
--->OC6:Equilibrium result:   9 its,  5.1600E-04 s,      1 cc, GS= -4.1873595E+05 J/mol
3Y Testing if any gridpoint is below the calculated equilibrium
--->OC6:--->OC6:
Overwriting previous results on ./OCoutput_matrix.OCU
3E allocating workspace:     122160          (   2160,   10000,    2)
 3E saving            3  symbols as texts
 3E used        12112  words out of       122160  for storing static data
 ceqrecsize not implemented          25
 3E Saving an equilibrium record requires     2613       0 words
 3E not storing unused equilibria from:            2
 3E Saving assessment record
 3E No experimental equilibrium range set
 3E allocating assessment head record          48
 3E no coefficients allocated
 3E no work array (assrec%wopt) allocated
Used    14813 words out of   122160,  12.13% for unformatted memory save
Written workspace      59252 bytes unformatted on ./OCoutput_matrix.OCU
--->OC6:--->OC6:Output on file: ./OCoutput_matrix.DAT
Output unit reset to screen:    6
--->OC6:--->OC6:
[OC output] ./OCoutput_matrix.DAT
----------------------------------------

%%%%%%%%%% OC output written: 2026-04-19  21h34

Output for equilibrium:   1, DEFAULT_EQUILIBRIUM          2026.04.19
Conditions .................................................:
  1:T=1290, 2:P=268000, 3:N(O)=0.664146, 4:N(PU)=.0959685, 5:N(U)=0.239885
 Degrees of freedom are   0

Some global data, reference state SER ......................:
T=   1290.00 K (  1016.85 C), P=  2.6800E+05 Pa, V=  0.0000E+00 m3
N=   1.0000E+00 moles, B=   9.1148E+01 g, RT=   1.0726E+04 J/mol
G= -4.18736E+05 J, G/N=-4.1874E+05 J/mol, H=-3.3305E+05 J, S= 6.643E+01 J/K

Some data for components ...................................:
Component name    Moles      Mole-fr  Chem.pot/RT  Activities  Ref.state
O                 6.6415E-01  0.66415 -2.6521E+01  3.0352E-12  GAS             
PU                9.5969E-02  0.09597 -3.7319E+01  6.2000E-17  SER (default)   
U                 2.3988E-01  0.23989 -3.7957E+01  3.2784E-17  SER (default)   

Some data for phases .......................................:
Name                Status Moles      Volume    Form.Units Cmp/FU dGm/RT  Comp:
C1_MO2.................. E  1.000E+00  0.00E+00  3.36E-01    2.98  0.00E+00  X:
 O      6.64146E-01  U      2.39885E-01  PU     9.59685E-02


----------------------------------------

[OC parser] Parsed components
  O : moles=0.66415, x=0.66415, mu/RT=-26.521, activity=3.0352e-12, ref=GAS
  Pu : moles=0.095969, x=0.09597, mu/RT=-37.319, activity=6.2e-17, ref=SER (default)
  U : moles=0.23988, x=0.23989, mu/RT=-37.957, activity=3.2784e-17, ref=SER (default)

[OC parser] Parsed phases
  Phase condensed : moles=1, volume=0
    Elements
      O = 0.664146
      Pu = 0.0959685
      U = 0.239885
    Species
      C1_MO2 : moles=1, volume=0
        O = 0.664146
        Pu = 0.0959685
        U = 0.239885
OpenCalphad attempt for 'matrix' with WARM-START

[OC input] ./OCinput_matrix.OCM
----------------------------------------
r u ./OCoutput_matrix.OCU

set ref o gas * 100000

set c t=1290
set c p=336000
set c n(o)=0.664428
set c n(pu)=0.0955858
set c n(u)=0.239987
c e
c w

save u ./OCoutput_matrix Y

l /out=./OCoutput_matrix.DAT r 1

fin
----------------------------------------

3A unfished preparations for XTDB


Open Calphad (OC) software version   6.106 , linked 2026-04-16
with command line monitor version  73

This program is available with a GNU General Public License.
either version 2 of the License, or any later version.
It includes the General Thermodynamic Package, version GTP-3.31,
Hillert's equilibrium calculation algorithm version HMS-3.0 ,
step/map/plot software version SMP-2.30 using GNUPLOT 5.2 graphics.
Numerical routines are extracted from LAPACK and BLAS and
the assessment procedure uses LMDIF from ANL.

Linked with OpenMp for parallel execution
 Warning, no environment variable OCHOME and no help file
 Working directory is: /home/ecappellari/transparant/sciantix-official/regression/test_JOG_MOX/point_08_r_2p3mm
--->OC6:
Read unformatted file: This is a save file for OC version:     OCF-3.20
Generated:  2026.04.19 21h34

 3E reading unformatted:        14778           0           0
3E Addition type   1, Inden-Hillert magn model for BCC_A2
3E Addition type   1, Inden-Hillert magn model for FCC_A1
 3E no experimental data
 3E no coefficient values saved
 3E Read assessment record
 No coefficients allocated
--->OC6:--->OC6:--->OC6:--->OC6:--->OC6:--->OC6:--->OC6:--->OC6:--->OC6:3Y Removed  2 gridpoints by merging
Gridmin:    7483 points   1.90E-02 s and      18 clockcycles, T= 1290.00
 3Y leaving global_gridmin
Equilibrium result:  15 its,  1.9986E-02 s,     21 cc, GS= -4.1874325E+05 J/mol
--->OC6:Equilibrium result:   9 its,  4.9800E-04 s,      0 cc, GS= -4.1874325E+05 J/mol
3Y Testing if any gridpoint is below the calculated equilibrium
--->OC6:--->OC6:
Overwriting previous results on ./OCoutput_matrix.OCU
3E allocating workspace:     122160          (   2160,   10000,    2)
 3E saving            3  symbols as texts
 3E used        12112  words out of       122160  for storing static data
 ceqrecsize not implemented          25
 3E Saving an equilibrium record requires     2613       0 words
 3E not storing unused equilibria from:            2
 3E Saving assessment record
 3E No experimental equilibrium range set
 3E allocating assessment head record          48
 3E no coefficients allocated
 3E no work array (assrec%wopt) allocated
Used    14813 words out of   122160,  12.13% for unformatted memory save
Written workspace      59252 bytes unformatted on ./OCoutput_matrix.OCU
--->OC6:--->OC6:Output on file: ./OCoutput_matrix.DAT
Output unit reset to screen:    6
--->OC6:--->OC6:
[OC output] ./OCoutput_matrix.DAT
----------------------------------------

%%%%%%%%%% OC output written: 2026-04-19  21h34

Output for equilibrium:   1, DEFAULT_EQUILIBRIUM          2026.04.19
Conditions .................................................:
  1:T=1290, 2:P=336000, 3:N(O)=0.664428, 4:N(PU)=.0955858, 5:N(U)=0.239987
 Degrees of freedom are   0

Some global data, reference state SER ......................:
T=   1290.00 K (  1016.85 C), P=  3.3600E+05 Pa, V=  0.0000E+00 m3
N=   1.0000E+00 moles, B=   9.1083E+01 g, RT=   1.0726E+04 J/mol
G= -4.18743E+05 J, G/N=-4.1874E+05 J/mol, H=-3.3315E+05 J, S= 6.635E+01 J/K

Some data for components ...................................:
Component name    Moles      Mole-fr  Chem.pot/RT  Activities  Ref.state
O                 6.6443E-01  0.66443 -2.6392E+01  3.4525E-12  GAS             
PU                9.5586E-02  0.09559 -3.7793E+01  3.8621E-17  SER (default)   
U                 2.3999E-01  0.23999 -3.8437E+01  2.0271E-17  SER (default)   

Some data for phases .......................................:
Name                Status Moles      Volume    Form.Units Cmp/FU dGm/RT  Comp:
C1_MO2.................. E  1.000E+00  0.00E+00  3.36E-01    2.98  0.00E+00  X:
 O      6.64427E-01  U      2.39987E-01  PU     9.55857E-02


----------------------------------------

[OC parser] Parsed components
  O : moles=0.66443, x=0.66443, mu/RT=-26.392, activity=3.4525e-12, ref=GAS
  Pu : moles=0.095586, x=0.09559, mu/RT=-37.793, activity=3.8621e-17, ref=SER (default)
  U : moles=0.23999, x=0.23999, mu/RT=-38.437, activity=2.0271e-17, ref=SER (default)

[OC parser] Parsed phases
  Phase condensed : moles=1, volume=0
    Elements
      O = 0.664427
      Pu = 0.0955857
      U = 0.239987
    Species
      C1_MO2 : moles=1, volume=0
        O = 0.664427
        Pu = 0.0955857
        U = 0.239987
OpenCalphad attempt for 'at grain boundary' with WARM-START

[OC input] ./OCinput_fission_products.OCM
----------------------------------------
@$ Initialize variables:
r t /home/ecappellari/transparant/opencalphad/data/CsMoO_TAFID_2021_Anna cs mo o

set ref o gas * 100000

set c t=1290
set c p=336000
set c n(cs)=2.09385e-05
set c n(mo)=2.92208e-05
set c n(o)=0.99995
c e
set c n(o)=none
set c mu(o)=-566132

c w

save u ./OCoutput_fission_products Y

l /out=./OCoutput_fission_products.DAT r 1

fin
----------------------------------------

3A unfished preparations for XTDB


Open Calphad (OC) software version   6.106 , linked 2026-04-16
with command line monitor version  73

This program is available with a GNU General Public License.
either version 2 of the License, or any later version.
It includes the General Thermodynamic Package, version GTP-3.31,
Hillert's equilibrium calculation algorithm version HMS-3.0 ,
step/map/plot software version SMP-2.30 using GNUPLOT 5.2 graphics.
Numerical routines are extracted from LAPACK and BLAS and
the assessment procedure uses LMDIF from ANL.

Linked with OpenMp for parallel execution
 Warning, no environment variable OCHOME and no help file
 Working directory is: /home/ecappellari/transparant/sciantix-official/regression/test_JOG_MOX/point_08_r_2p3mm
--->OC6:--->OC6: 3E Database file extention is: ".tdb"
Database has  3 elements: CS MO O 
Give the elements to select, finish with empty line
Selected  3 elements: CS MO O 
Select elements /no more/:Selected  3 elements: CS MO O 
3E reading database file: /home/ecappellari/transparant/opencalphad/data/CsMoO_TAFID_2021_Anna.TDB

Out of    82 model parameters    82 have been entered


There are     1 bibliographic references
REF0            '*** Not set by database or user'

--->OC6:--->OC6:--->OC6:--->OC6:--->OC6:--->OC6:--->OC6:--->OC6:Gridmin:    9683 points   2.79E-02 s and      27 clockcycles, T= 1290.00
 3Y leaving global_gridmin
Phase change iteration:     9  -CS2MO3O10
Equilibrium result:  50 its,  3.1269E-02 s,     32 cc, GS= -1.3995425E+05 J/mol
--->OC6:--->OC6:--->OC6:--->OC6:Phase change iteration:     4  -GAS
Phase change iteration:     8  +BCC_A2
Phase change iteration:    12  +CS7O1
Phase change iteration:    13  +MC_ETA
Phase change iteration:    14  -LIQUID
Phase change iteration:    18  +FCC_A1
Phase change iteration:    22  -FCC_A1
Phase change iteration:    26  +HCP_A3
Phase change iteration:    30  -BCC_A2
Phase change iteration:    35  +GAS
Equilibrium result:  49 its,  7.1260E-03 s,      8 cc, GS= -4.7349586E+00 J/mol
3Y Testing if any gridpoint is below the calculated equilibrium
 3Y Equilibrium wrong, gridtest found BCC_A2                  
 3Y recalculate with:           38           2          39
 MM recalculating with this phase as stable 2:           38
MM Calculate with activity condition
Phase change iteration:     4  -BCC_A2_CHKD#2
Phase change iteration:     5  +BCC_A2_CHKD#2
Phase change iteration:     8  +BCC_A2_CHKD#2
Phase change iteration:     9  +BCC_A2_CHKD#2
Phase change iteration:    10  +BCC_A2_CHKD#2
MM Too many stable phases at iter  10, phase  26 replaced by   4, T=  1290.00
Equilibrium result:  28 its,  4.0939E-02 s,     42 cc, GS= -5.0275721E+00 J/mol
3Y Testing if any gridpoint is below the calculated equilibrium
--->OC6:--->OC6:3E allocating workspace:     123330          (   3330,   10000,    2)
 3E saving            3  symbols as texts
 3E used        12286  words out of       123330  for storing static data
 ceqrecsize not implemented          39
 3E Saving an equilibrium record requires     4093       0 words
 3E not storing unused equilibria from:            2
 3E Saving assessment record
 3E No experimental equilibrium range set
 3E allocating assessment head record          48
 3E no coefficients allocated
 3E no work array (assrec%wopt) allocated
Used    16467 words out of   123330,  13.35% for unformatted memory save
Written workspace      65868 bytes unformatted on ./OCoutput_fission_products.OCU
--->OC6:--->OC6:Output on file: ./OCoutput_fission_products.DAT
Output unit reset to screen:    6
--->OC6:--->OC6:
[OC output] ./OCoutput_fission_products.DAT
----------------------------------------

%%%%%%%%%% OC output written: 2026-04-19  21h34

Output for equilibrium:   1, DEFAULT_EQUILIBRIUM          2026.04.19
Conditions .................................................:
  1:T=1290, 2:P=336000, 3:N(CS)=2.09385E-05, 4:N(MO)=2.92208E-05, 5:MU(O)=
    -566132
 Degrees of freedom are   0

Some global data, reference state SER ......................:
T=   1290.00 K (  1016.85 C), P=  3.3600E+05 Pa, V=  6.3763E-07 m3
N=   5.0159E-05 moles, B=   5.5864E-03 g, RT=   1.0726E+04 J/mol
G= -5.02757E+00 J, G/N=-1.0023E+05 J/mol, H= 2.7816E+00 J, S= 6.054E-03 J/K

Some data for components ...................................:
Component name    Moles      Mole-fr  Chem.pot/RT  Activities  Ref.state
CS                2.0939E-05  0.41744 -1.4562E+01  4.7395E-07  SER (default)   
MO                2.9221E-05  0.58256 -5.6066E+00  3.6735E-03  SER (default)   
O                 9.6634E-17  0.00000 -5.2783E+01  1.1934E-23  GAS             

Some data for phases .......................................:
Name                Status Moles      Volume    Form.Units Cmp/FU dGm/RT  Comp:
GAS..................... E  2.089E-05  6.38E-07  2.00E-05    1.05  0.00E+00  X:
 CS     1.00000E+00  O      9.71911E-18  MO     4.48101E-20
Constitution: There are    18 constituents:
 CS           9.54277E-01  CS2O2        1.00000E-30  MOO2         1.00000E-30
 CS2          4.57231E-02  MO2O6        1.00000E-30  MOO3         1.00000E-30
 CS2O         1.01635E-17  MO3O9        1.00000E-30  O            1.00000E-30
 MO           4.68590E-20  MO4O12       1.00000E-30  O2           1.00000E-30
 CSO          3.73291E-23  MO5O15       1.00000E-30  O3           1.00000E-30
 MO2          1.16512E-28  MOO          1.00000E-30  CS2MOO4      1.00000E-30

BCC_A2_CHKD#2........... E  2.927E-05  0.00E+00  2.93E-05    1.00  0.00E+00  X:
 MO     9.98273E-01  CS     1.72674E-03  O      3.30132E-12


----------------------------------------

[OC parser] Parsed components
  Cs : moles=2.0939e-05, x=0.41744, mu/RT=-14.562, activity=4.7395e-07, ref=SER (default)
  Mo : moles=2.9221e-05, x=0.58256, mu/RT=-5.6066, activity=0.0036735, ref=SER (default)
  O : moles=9.6634e-17, x=0, mu/RT=-52.783, activity=1.1934e-23, ref=GAS

[OC parser] Parsed phases
  Phase condensed : moles=2.927e-05, volume=0
    Elements
      Cs = 5.05417e-08
      Mo = 2.92195e-05
      O = 9.66296e-17
    Species
      BCC_A2 : moles=2.927e-05, volume=0
        Cs = 5.05417e-08
        Mo = 2.92195e-05
        O = 9.66296e-17
  Phase gas : moles=2.089e-05, volume=6.38e-07
    Elements
      Cs = 2.089e-05
      Mo = 9.36083e-25
      O = 2.03032e-22
    Species
      CS : moles=1.99348e-05, volume=0
      CS2 : moles=9.55156e-07, volume=0
      CS2MOO4 : moles=2.089e-35, volume=0
      CS2O : moles=2.12316e-22, volume=0
      CS2O2 : moles=2.089e-35, volume=0
      CSO : moles=7.79805e-28, volume=0
      MO : moles=9.78885e-25, volume=0
      MO2 : moles=2.43394e-33, volume=0
      MO2O6 : moles=2.089e-35, volume=0
      MO3O9 : moles=2.089e-35, volume=0
      MO4O12 : moles=2.089e-35, volume=0
      MO5O15 : moles=2.089e-35, volume=0
      MOO : moles=2.089e-35, volume=0
      MOO2 : moles=2.089e-35, volume=0
      MOO3 : moles=2.089e-35, volume=0
      O : moles=2.089e-35, volume=0
      O2 : moles=2.089e-35, volume=0
      O3 : moles=2.089e-35, volume=0
      are : moles=0.00037602, volume=0
OpenCalphad attempt for 'matrix' with WARM-START

[OC input] ./OCinput_matrix.OCM
----------------------------------------
r u ./OCoutput_matrix.OCU

set ref o gas * 100000

set c t=1290
set c p=404000
set c n(o)=0.664709
set c n(pu)=0.0952027
set c n(u)=0.240088
c e
c w

save u ./OCoutput_matrix Y

l /out=./OCoutput_matrix.DAT r 1

fin
----------------------------------------

3A unfished preparations for XTDB


Open Calphad (OC) software version   6.106 , linked 2026-04-16
with command line monitor version  73

This program is available with a GNU General Public License.
either version 2 of the License, or any later version.
It includes the General Thermodynamic Package, version GTP-3.31,
Hillert's equilibrium calculation algorithm version HMS-3.0 ,
step/map/plot software version SMP-2.30 using GNUPLOT 5.2 graphics.
Numerical routines are extracted from LAPACK and BLAS and
the assessment procedure uses LMDIF from ANL.

Linked with OpenMp for parallel execution
 Warning, no environment variable OCHOME and no help file
 Working directory is: /home/ecappellari/transparant/sciantix-official/regression/test_JOG_MOX/point_08_r_2p3mm
--->OC6:
Read unformatted file: This is a save file for OC version:     OCF-3.20
Generated:  2026.04.19 21h34

 3E reading unformatted:        14778           0           0
3E Addition type   1, Inden-Hillert magn model for BCC_A2
3E Addition type   1, Inden-Hillert magn model for FCC_A1
 3E no experimental data
 3E no coefficient values saved
 3E Read assessment record
 No coefficients allocated
--->OC6:--->OC6:--->OC6:--->OC6:--->OC6:--->OC6:--->OC6:--->OC6:--->OC6:3Y Removed  2 gridpoints by merging
Gridmin:    7483 points   1.79E-02 s and      15 clockcycles, T= 1290.00
 3Y leaving global_gridmin
Equilibrium result:  18 its,  1.9013E-02 s,     19 cc, GS= -4.1874728E+05 J/mol
--->OC6:Equilibrium result:   9 its,  4.9800E-04 s,      1 cc, GS= -4.1874728E+05 J/mol
3Y Testing if any gridpoint is below the calculated equilibrium
--->OC6:--->OC6:
Overwriting previous results on ./OCoutput_matrix.OCU
3E allocating workspace:     122160          (   2160,   10000,    2)
 3E saving            3  symbols as texts
 3E used        12112  words out of       122160  for storing static data
 ceqrecsize not implemented          25
 3E Saving an equilibrium record requires     2613       0 words
 3E not storing unused equilibria from:            2
 3E Saving assessment record
 3E No experimental equilibrium range set
 3E allocating assessment head record          48
 3E no coefficients allocated
 3E no work array (assrec%wopt) allocated
Used    14813 words out of   122160,  12.13% for unformatted memory save
Written workspace      59252 bytes unformatted on ./OCoutput_matrix.OCU
--->OC6:--->OC6:Output on file: ./OCoutput_matrix.DAT
Output unit reset to screen:    6
--->OC6:--->OC6:
[OC output] ./OCoutput_matrix.DAT
----------------------------------------

%%%%%%%%%% OC output written: 2026-04-19  21h34

Output for equilibrium:   1, DEFAULT_EQUILIBRIUM          2026.04.19
Conditions .................................................:
  1:T=1290, 2:P=404000, 3:N(O)=0.664709, 4:N(PU)=.0952027, 5:N(U)=0.240088
 Degrees of freedom are   0

Some global data, reference state SER ......................:
T=   1290.00 K (  1016.85 C), P=  4.0400E+05 Pa, V=  0.0000E+00 m3
N=   1.0000E+00 moles, B=   9.1018E+01 g, RT=   1.0726E+04 J/mol
G= -4.18747E+05 J, G/N=-4.1875E+05 J/mol, H=-3.3325E+05 J, S= 6.628E+01 J/K

Some data for components ...................................:
Component name    Moles      Mole-fr  Chem.pot/RT  Activities  Ref.state
O                 6.6471E-01  0.66471 -2.6215E+01  4.1219E-12  GAS             
PU                9.5203E-02  0.09520 -3.8321E+01  2.2778E-17  SER (default)   
U                 2.4009E-01  0.24009 -3.8973E+01  1.1861E-17  SER (default)   

Some data for phases .......................................:
Name                Status Moles      Volume    Form.Units Cmp/FU dGm/RT  Comp:
C1_MO2.................. E  1.000E+00  0.00E+00  3.35E-01    2.98  0.00E+00  X:
 O      6.64709E-01  U      2.40088E-01  PU     9.52027E-02


----------------------------------------

[OC parser] Parsed components
  O : moles=0.66471, x=0.66471, mu/RT=-26.215, activity=4.1219e-12, ref=GAS
  Pu : moles=0.095203, x=0.0952, mu/RT=-38.321, activity=2.2778e-17, ref=SER (default)
  U : moles=0.24009, x=0.24009, mu/RT=-38.973, activity=1.1861e-17, ref=SER (default)

[OC parser] Parsed phases
  Phase condensed : moles=1, volume=0
    Elements
      O = 0.664709
      Pu = 0.0952027
      U = 0.240088
    Species
      C1_MO2 : moles=1, volume=0
        O = 0.664709
        Pu = 0.0952027
        U = 0.240088
OpenCalphad attempt for 'at grain boundary' with WARM-START

[OC input] ./OCinput_fission_products.OCM
----------------------------------------
r u ./OCoutput_fission_products.OCU

set ref o gas * 100000

set c t=1290
set c p=404000
set c n(cs)=3.5779e-05
set c n(mo)=5.0835e-05
set c n(o)=0.999913
c e
set c n(o)=none
set c mu(o)=-562335

c w

save u ./OCoutput_fission_products Y

l /out=./OCoutput_fission_products.DAT r 1

fin
----------------------------------------

3A unfished preparations for XTDB


Open Calphad (OC) software version   6.106 , linked 2026-04-16
with command line monitor version  73

This program is available with a GNU General Public License.
either version 2 of the License, or any later version.
It includes the General Thermodynamic Package, version GTP-3.31,
Hillert's equilibrium calculation algorithm version HMS-3.0 ,
step/map/plot software version SMP-2.30 using GNUPLOT 5.2 graphics.
Numerical routines are extracted from LAPACK and BLAS and
the assessment procedure uses LMDIF from ANL.

Linked with OpenMp for parallel execution
 Warning, no environment variable OCHOME and no help file
 Working directory is: /home/ecappellari/transparant/sciantix-official/regression/test_JOG_MOX/point_08_r_2p3mm
--->OC6:
Read unformatted file: This is a save file for OC version:     OCF-3.20
Generated:  2026.04.19 21h34

 3E reading unformatted:        16432           0           0
3E Addition type   1, Inden-Hillert magn model for BCC_A2
3E Addition type   1, Inden-Hillert magn model for FCC_A1
3E Addition type   1, Inden-Hillert magn model for HCP_A3
 3E no experimental data
 3E no coefficient values saved
 3E Read assessment record
 No coefficients allocated
--->OC6:--->OC6:--->OC6:--->OC6:--->OC6:--->OC6:--->OC6:--->OC6:--->OC6:
Error codes:   4144     0    50
Message: Degrees of freedom not zero

--->OC6:--->OC6:--->OC6:--->OC6:Equilibrium result:  10 its,  7.5700E-04 s,      1 cc, GS= -8.5780829E+00 J/mol
3Y Testing if any gridpoint is below the calculated equilibrium
--->OC6:--->OC6:
Overwriting previous results on ./OCoutput_fission_products.OCU
3E allocating workspace:     123330          (   3330,   10000,    2)
 3E saving            3  symbols as texts
 3E used        12286  words out of       123330  for storing static data
 ceqrecsize not implemented          39
 3E Saving an equilibrium record requires     4092       0 words
 3E not storing unused equilibria from:            2
 3E Saving assessment record
 3E No experimental equilibrium range set
 3E allocating assessment head record          48
 3E no coefficients allocated
 3E no work array (assrec%wopt) allocated
Used    16466 words out of   123330,  13.35% for unformatted memory save
Written workspace      65864 bytes unformatted on ./OCoutput_fission_products.OCU
--->OC6:--->OC6:Output on file: ./OCoutput_fission_products.DAT
Output unit reset to screen:    6
--->OC6:--->OC6:
[OC output] ./OCoutput_fission_products.DAT
----------------------------------------

%%%%%%%%%% OC output written: 2026-04-19  21h34

Output for equilibrium:   1, DEFAULT_EQUILIBRIUM          2026.04.19
Conditions .................................................:
  1:T=1290, 2:P=404000, 3:N(CS)=3.5779E-05, 4:N(MO)=5.0835E-05, 5:MU(O)=
    -562335
 Degrees of freedom are   0

Some global data, reference state SER ......................:
T=   1290.00 K (  1016.85 C), P=  4.0400E+05 Pa, V=  8.9855E-07 m3
N=   8.6614E-05 moles, B=   9.6325E-03 g, RT=   1.0726E+04 J/mol
G= -8.57808E+00 J, G/N=-9.9038E+04 J/mol, H= 4.7644E+00 J, S= 1.034E-02 J/K

Some data for components ...................................:
Component name    Moles      Mole-fr  Chem.pot/RT  Activities  Ref.state
CS                3.5779E-05  0.41309 -1.4387E+01  5.6491E-07  SER (default)   
MO                5.0835E-05  0.58691 -5.6070E+00  3.6722E-03  SER (default)   
O                 1.6817E-16  0.00000 -5.2429E+01  1.7003E-23  GAS             

Some data for phases .......................................:
Name                Status Moles      Volume    Form.Units Cmp/FU dGm/RT  Comp:
GAS..................... E  3.567E-05  8.99E-07  3.38E-05    1.05  0.00E+00  X:
 CS     1.00000E+00  O      1.77996E-17  MO     3.69620E-20
Constitution: There are    18 constituents:
 CS           9.45976E-01  O            1.24782E-30  MOO2         1.00000E-30
 CS2          5.40243E-02  MO2O6        1.00000E-30  MOO3         1.00000E-30
 CS2O         1.87612E-17  MO3O9        1.00000E-30  CS2O2        1.00000E-30
 MO           3.89589E-20  MO4O12       1.00000E-30  O2           1.00000E-30
 CSO          5.78121E-23  MO5O15       1.00000E-30  O3           1.00000E-30
 MO2          9.68368E-29  MOO          1.00000E-30  CS2MOO4      1.00000E-30

BCC_A2_CHKD#2........... E  5.094E-05  0.00E+00  5.09E-05    1.00  0.00E+00  X:
 MO     9.97935E-01  CS     2.06462E-03  O      3.30132E-12


----------------------------------------

[OC parser] Parsed components
  Cs : moles=3.5779e-05, x=0.41309, mu/RT=-14.387, activity=5.6491e-07, ref=SER (default)
  Mo : moles=5.0835e-05, x=0.58691, mu/RT=-5.607, activity=0.0036722, ref=SER (default)
  O : moles=1.6817e-16, x=0, mu/RT=-52.429, activity=1.7003e-23, ref=GAS

[OC parser] Parsed phases
  Phase condensed : moles=5.094e-05, volume=0
    Elements
      Cs = 1.05172e-07
      Mo = 5.08348e-05
      O = 1.68169e-16
    Species
      BCC_A2 : moles=5.094e-05, volume=0
        Cs = 1.05172e-07
        Mo = 5.08348e-05
        O = 1.68169e-16
  Phase gas : moles=3.567e-05, volume=8.99e-07
    Elements
      Cs = 3.567e-05
      Mo = 1.31843e-24
      O = 6.34912e-22
    Species
      CS : moles=3.3743e-05, volume=0
      CS2 : moles=1.92705e-06, volume=0
      CS2MOO4 : moles=3.567e-35, volume=0
      CS2O : moles=6.69212e-22, volume=0
      CS2O2 : moles=3.567e-35, volume=0
      CSO : moles=2.06216e-27, volume=0
      MO : moles=1.38966e-24, volume=0
      MO2 : moles=3.45417e-33, volume=0
      MO2O6 : moles=3.567e-35, volume=0
      MO3O9 : moles=3.567e-35, volume=0
      MO4O12 : moles=3.567e-35, volume=0
      MO5O15 : moles=3.567e-35, volume=0
      MOO : moles=3.567e-35, volume=0
      MOO2 : moles=3.567e-35, volume=0
      MOO3 : moles=3.567e-35, volume=0
      O : moles=4.45097e-35, volume=0
      O2 : moles=3.567e-35, volume=0
      O3 : moles=3.567e-35, volume=0
      are : moles=0.00064206, volume=0
OpenCalphad attempt for 'matrix' with WARM-START

[OC input] ./OCinput_matrix.OCM
----------------------------------------
r u ./OCoutput_matrix.OCU

set ref o gas * 100000

set c t=1290
set c p=472000
set c n(o)=0.664991
set c n(pu)=0.0948194
set c n(u)=0.24019
c e
c w

save u ./OCoutput_matrix Y

l /out=./OCoutput_matrix.DAT r 1

fin
----------------------------------------

3A unfished preparations for XTDB


Open Calphad (OC) software version   6.106 , linked 2026-04-16
with command line monitor version  73

This program is available with a GNU General Public License.
either version 2 of the License, or any later version.
It includes the General Thermodynamic Package, version GTP-3.31,
Hillert's equilibrium calculation algorithm version HMS-3.0 ,
step/map/plot software version SMP-2.30 using GNUPLOT 5.2 graphics.
Numerical routines are extracted from LAPACK and BLAS and
the assessment procedure uses LMDIF from ANL.

Linked with OpenMp for parallel execution
 Warning, no environment variable OCHOME and no help file
 Working directory is: /home/ecappellari/transparant/sciantix-official/regression/test_JOG_MOX/point_08_r_2p3mm
--->OC6:
Read unformatted file: This is a save file for OC version:     OCF-3.20
Generated:  2026.04.19 21h34

 3E reading unformatted:        14778           0           0
3E Addition type   1, Inden-Hillert magn model for BCC_A2
3E Addition type   1, Inden-Hillert magn model for FCC_A1
 3E no experimental data
 3E no coefficient values saved
 3E Read assessment record
 No coefficients allocated
--->OC6:--->OC6:--->OC6:--->OC6:--->OC6:--->OC6:--->OC6:--->OC6:--->OC6:3Y Removed  2 gridpoints by merging
Gridmin:    7483 points   1.84E-02 s and      16 clockcycles, T= 1290.00
 3Y leaving global_gridmin
Equilibrium result:  18 its,  1.9541E-02 s,     20 cc, GS= -4.1874953E+05 J/mol
--->OC6:Equilibrium result:   9 its,  5.0800E-04 s,      1 cc, GS= -4.1874953E+05 J/mol
3Y Testing if any gridpoint is below the calculated equilibrium
--->OC6:--->OC6:
Overwriting previous results on ./OCoutput_matrix.OCU
3E allocating workspace:     122160          (   2160,   10000,    2)
 3E saving            3  symbols as texts
 3E used        12112  words out of       122160  for storing static data
 ceqrecsize not implemented          25
 3E Saving an equilibrium record requires     2613       0 words
 3E not storing unused equilibria from:            2
 3E Saving assessment record
 3E No experimental equilibrium range set
 3E allocating assessment head record          48
 3E no coefficients allocated
 3E no work array (assrec%wopt) allocated
Used    14813 words out of   122160,  12.13% for unformatted memory save
Written workspace      59252 bytes unformatted on ./OCoutput_matrix.OCU
--->OC6:--->OC6:Output on file: ./OCoutput_matrix.DAT
Output unit reset to screen:    6
--->OC6:--->OC6:
[OC output] ./OCoutput_matrix.DAT
----------------------------------------

%%%%%%%%%% OC output written: 2026-04-19  21h34

Output for equilibrium:   1, DEFAULT_EQUILIBRIUM          2026.04.19
Conditions .................................................:
  1:T=1290, 2:P=472000, 3:N(O)=0.664991, 4:N(PU)=.0948194, 5:N(U)=0.24019
 Degrees of freedom are   0

Some global data, reference state SER ......................:
T=   1290.00 K (  1016.85 C), P=  4.7200E+05 Pa, V=  0.0000E+00 m3
N=   1.0000E+00 moles, B=   9.0953E+01 g, RT=   1.0726E+04 J/mol
G= -4.18750E+05 J, G/N=-4.1875E+05 J/mol, H=-3.3334E+05 J, S= 6.621E+01 J/K

Some data for components ...................................:
Component name    Moles      Mole-fr  Chem.pot/RT  Activities  Ref.state
O                 6.6499E-01  0.66499 -2.5991E+01  5.1570E-12  GAS             
PU                9.4819E-02  0.09482 -3.8913E+01  1.2593E-17  SER (default)   
U                 2.4019E-01  0.24019 -3.9574E+01  6.5020E-18  SER (default)   

Some data for phases .......................................:
Name                Status Moles      Volume    Form.Units Cmp/FU dGm/RT  Comp:
C1_MO2.................. E  1.000E+00  0.00E+00  3.35E-01    2.98  0.00E+00  X:
 O      6.64991E-01  U      2.40190E-01  PU     9.48194E-02


----------------------------------------

[OC parser] Parsed components
  O : moles=0.66499, x=0.66499, mu/RT=-25.991, activity=5.157e-12, ref=GAS
  Pu : moles=0.094819, x=0.09482, mu/RT=-38.913, activity=1.2593e-17, ref=SER (default)
  U : moles=0.24019, x=0.24019, mu/RT=-39.574, activity=6.502e-18, ref=SER (default)

[OC parser] Parsed phases
  Phase condensed : moles=1, volume=0
    Elements
      O = 0.664991
      Pu = 0.0948194
      U = 0.24019
    Species
      C1_MO2 : moles=1, volume=0
        O = 0.664991
        Pu = 0.0948194
        U = 0.24019
OpenCalphad attempt for 'at grain boundary' with WARM-START

[OC input] ./OCinput_fission_products.OCM
----------------------------------------
r u ./OCoutput_fission_products.OCU

set ref o gas * 100000

set c t=1290
set c p=472000
set c n(cs)=5.20786e-05
set c n(mo)=7.58759e-05
set c n(o)=0.999872
c e
set c n(o)=none
set c mu(o)=-557530

c w

save u ./OCoutput_fission_products Y

l /out=./OCoutput_fission_products.DAT r 1

fin
----------------------------------------

3A unfished preparations for XTDB


Open Calphad (OC) software version   6.106 , linked 2026-04-16
with command line monitor version  73

This program is available with a GNU General Public License.
either version 2 of the License, or any later version.
It includes the General Thermodynamic Package, version GTP-3.31,
Hillert's equilibrium calculation algorithm version HMS-3.0 ,
step/map/plot software version SMP-2.30 using GNUPLOT 5.2 graphics.
Numerical routines are extracted from LAPACK and BLAS and
the assessment procedure uses LMDIF from ANL.

Linked with OpenMp for parallel execution
 Warning, no environment variable OCHOME and no help file
 Working directory is: /home/ecappellari/transparant/sciantix-official/regression/test_JOG_MOX/point_08_r_2p3mm
--->OC6:
Read unformatted file: This is a save file for OC version:     OCF-3.20
Generated:  2026.04.19 21h34

 3E reading unformatted:        16431           0           0
3E Addition type   1, Inden-Hillert magn model for BCC_A2
3E Addition type   1, Inden-Hillert magn model for FCC_A1
3E Addition type   1, Inden-Hillert magn model for HCP_A3
 3E no experimental data
 3E no coefficient values saved
 3E Read assessment record
 No coefficients allocated
--->OC6:--->OC6:--->OC6:--->OC6:--->OC6:--->OC6:--->OC6:--->OC6:--->OC6:
Error codes:   4144     0    50
Message: Degrees of freedom not zero

--->OC6:--->OC6:--->OC6:--->OC6:Equilibrium result:   9 its,  6.9300E-04 s,      1 cc, GS= -1.2517276E+01 J/mol
3Y Testing if any gridpoint is below the calculated equilibrium
--->OC6:--->OC6:
Overwriting previous results on ./OCoutput_fission_products.OCU
3E allocating workspace:     123330          (   3330,   10000,    2)
 3E saving            3  symbols as texts
 3E used        12286  words out of       123330  for storing static data
 ceqrecsize not implemented          39
 3E Saving an equilibrium record requires     4093       0 words
 3E not storing unused equilibria from:            2
 3E Saving assessment record
 3E No experimental equilibrium range set
 3E allocating assessment head record          48
 3E no coefficients allocated
 3E no work array (assrec%wopt) allocated
Used    16467 words out of   123330,  13.35% for unformatted memory save
Written workspace      65868 bytes unformatted on ./OCoutput_fission_products.OCU
--->OC6:--->OC6:Output on file: ./OCoutput_fission_products.DAT
Output unit reset to screen:    6
--->OC6:--->OC6:
[OC output] ./OCoutput_fission_products.DAT
----------------------------------------

%%%%%%%%%% OC output written: 2026-04-19  21h34

Output for equilibrium:   1, DEFAULT_EQUILIBRIUM          2026.04.19
Conditions .................................................:
  1:T=1290, 2:P=472000, 3:N(CS)=5.20786E-05, 4:N(MO)=7.58759E-05, 5:MU(O)=
    -557530
 Degrees of freedom are   0

Some global data, reference state SER ......................:
T=   1290.00 K (  1016.85 C), P=  4.7200E+05 Pa, V=  1.1104E-06 m3
N=   1.2795E-04 moles, B=   1.4201E-02 g, RT=   1.0726E+04 J/mol
G= -1.25173E+01 J, G/N=-9.7826E+04 J/mol, H= 6.9677E+00 J, S= 1.510E-02 J/K

Some data for components ...................................:
Component name    Moles      Mole-fr  Chem.pot/RT  Activities  Ref.state
CS                5.2079E-05  0.40701 -1.4240E+01  6.5439E-07  SER (default)   
MO                7.5876E-05  0.59299 -5.6073E+00  3.6710E-03  SER (default)   
O                 2.5109E-16  0.00000 -5.1981E+01  2.6612E-23  GAS             

Some data for phases .......................................:
Name                Status Moles      Volume    Form.Units Cmp/FU dGm/RT  Comp:
GAS..................... E  5.190E-05  1.11E-06  4.89E-05    1.06  0.00E+00  X:
 CS     1.00000E+00  O      3.43253E-17  MO     3.13876E-20
Constitution: There are    18 constituents:
 CS           9.37949E-01  O            1.80689E-30  MOO2         1.00000E-30
 CS2          6.20509E-02  MO2O6        1.00000E-30  MOO3         1.00000E-30
 CS2O         3.64551E-17  MO3O9        1.00000E-30  CS2O2        1.00000E-30
 MO           3.33352E-20  MO4O12       1.00000E-30  O2           1.00000E-30
 CSO          9.69744E-23  MO5O15       1.00000E-30  O3           1.00000E-30
 MO2          8.28314E-29  MOO          1.00000E-30  CS2MOO4      1.00000E-30

BCC_A2_CHKD#2........... E  7.606E-05  0.00E+00  7.61E-05    1.00  0.00E+00  X:
 MO     9.97601E-01  CS     2.39911E-03  O      3.30132E-12


----------------------------------------

[OC parser] Parsed components
  Cs : moles=5.2079e-05, x=0.40701, mu/RT=-14.24, activity=6.5439e-07, ref=SER (default)
  Mo : moles=7.5876e-05, x=0.59299, mu/RT=-5.6073, activity=0.003671, ref=SER (default)
  O : moles=2.5109e-16, x=0, mu/RT=-51.981, activity=2.6612e-23, ref=GAS

[OC parser] Parsed phases
  Phase condensed : moles=7.606e-05, volume=0
    Elements
      Cs = 1.82476e-07
      Mo = 7.58775e-05
      O = 2.51098e-16
    Species
      BCC_A2 : moles=7.606e-05, volume=0
        Cs = 1.82476e-07
        Mo = 7.58775e-05
        O = 2.51098e-16
  Phase gas : moles=5.19e-05, volume=1.11e-06
    Elements
      Cs = 5.19e-05
      Mo = 1.62902e-24
      O = 1.78148e-21
    Species
      CS : moles=4.86796e-05, volume=0
      CS2 : moles=3.22044e-06, volume=0
      CS2MOO4 : moles=5.19e-35, volume=0
      CS2O : moles=1.89202e-21, volume=0
      CS2O2 : moles=5.19e-35, volume=0
      CSO : moles=5.03297e-27, volume=0
      MO : moles=1.7301e-24, volume=0
      MO2 : moles=4.29895e-33, volume=0
      MO2O6 : moles=5.19e-35, volume=0
      MO3O9 : moles=5.19e-35, volume=0
      MO4O12 : moles=5.19e-35, volume=0
      MO5O15 : moles=5.19e-35, volume=0
      MOO : moles=5.19e-35, volume=0
      MOO2 : moles=5.19e-35, volume=0
      MOO3 : moles=5.19e-35, volume=0
      O : moles=9.37776e-35, volume=0
      O2 : moles=5.19e-35, volume=0
      O3 : moles=5.19e-35, volume=0
      are : moles=0.0009342, volume=0
OpenCalphad attempt for 'matrix' with WARM-START

[OC input] ./OCinput_matrix.OCM
----------------------------------------
r u ./OCoutput_matrix.OCU

set ref o gas * 100000

set c t=1290
set c p=540000
set c n(o)=0.665273
set c n(pu)=0.0944357
set c n(u)=0.240292
c e
c w

save u ./OCoutput_matrix Y

l /out=./OCoutput_matrix.DAT r 1

fin
----------------------------------------

3A unfished preparations for XTDB


Open Calphad (OC) software version   6.106 , linked 2026-04-16
with command line monitor version  73

This program is available with a GNU General Public License.
either version 2 of the License, or any later version.
It includes the General Thermodynamic Package, version GTP-3.31,
Hillert's equilibrium calculation algorithm version HMS-3.0 ,
step/map/plot software version SMP-2.30 using GNUPLOT 5.2 graphics.
Numerical routines are extracted from LAPACK and BLAS and
the assessment procedure uses LMDIF from ANL.

Linked with OpenMp for parallel execution
 Warning, no environment variable OCHOME and no help file
 Working directory is: /home/ecappellari/transparant/sciantix-official/regression/test_JOG_MOX/point_08_r_2p3mm
--->OC6:
Read unformatted file: This is a save file for OC version:     OCF-3.20
Generated:  2026.04.19 21h34

 3E reading unformatted:        14778           0           0
3E Addition type   1, Inden-Hillert magn model for BCC_A2
3E Addition type   1, Inden-Hillert magn model for FCC_A1
 3E no experimental data
 3E no coefficient values saved
 3E Read assessment record
 No coefficients allocated
--->OC6:--->OC6:--->OC6:--->OC6:--->OC6:--->OC6:--->OC6:--->OC6:--->OC6:3Y Removed  1 gridpoints by merging
 3Y Composition set(s) created:            1
Gridmin:    7483 points   1.56E-02 s and      14 clockcycles, T= 1290.00
 3Y leaving global_gridmin
Phase change iteration:     5  -C1_MO2_AUTO#2
Phase change iteration:     9  +PU2O3
Phase change iteration:    13  +C1_MO2_AUTO#2
Phase change iteration:    17  -C1_MO2#1
Phase change iteration:    21  -PU2O3
Equilibrium result:  45 its,  1.8925E-02 s,     19 cc, GS= -4.1874875E+05 J/mol
--->OC6:Equilibrium result:  15 its,  1.1820E-03 s,      1 cc, GS= -4.1874875E+05 J/mol
3Y Testing if any gridpoint is below the calculated equilibrium
--->OC6:--->OC6:
Overwriting previous results on ./OCoutput_matrix.OCU
3E allocating workspace:     122160          (   2160,   10000,    2)
 3E saving            3  symbols as texts
 3E used        12117  words out of       122160  for storing static data
 ceqrecsize not implemented          26
 3E Saving an equilibrium record requires     2854       0 words
 3E not storing unused equilibria from:            2
 3E Saving assessment record
 3E No experimental equilibrium range set
 3E allocating assessment head record          48
 3E no coefficients allocated
 3E no work array (assrec%wopt) allocated
Used    15059 words out of   122160,  12.33% for unformatted memory save
Written workspace      60236 bytes unformatted on ./OCoutput_matrix.OCU
--->OC6:--->OC6:Output on file: ./OCoutput_matrix.DAT
Output unit reset to screen:    6
--->OC6:--->OC6:
[OC output] ./OCoutput_matrix.DAT
----------------------------------------

%%%%%%%%%% OC output written: 2026-04-19  21h34

Output for equilibrium:   1, DEFAULT_EQUILIBRIUM          2026.04.19
Conditions .................................................:
  1:T=1290, 2:P=540000, 3:N(O)=0.665273, 4:N(PU)=.0944357, 5:N(U)=0.240292
 Degrees of freedom are   0

Some global data, reference state SER ......................:
T=   1290.00 K (  1016.85 C), P=  5.4000E+05 Pa, V=  0.0000E+00 m3
N=   1.0000E+00 moles, B=   9.0888E+01 g, RT=   1.0726E+04 J/mol
G= -4.18749E+05 J, G/N=-4.1875E+05 J/mol, H=-3.3344E+05 J, S= 6.613E+01 J/K

Some data for components ...................................:
Component name    Moles      Mole-fr  Chem.pot/RT  Activities  Ref.state
O                 6.6527E-01  0.66527 -2.5715E+01  6.7937E-12  GAS             
PU                9.4436E-02  0.09444 -3.9588E+01  6.4161E-18  SER (default)   
U                 2.4029E-01  0.24029 -4.0258E+01  3.2814E-18  SER (default)   

Some data for phases .......................................:
Name                Status Moles      Volume    Form.Units Cmp/FU dGm/RT  Comp:
C1_MO2#1................ E  1.000E+00  0.00E+00  3.35E-01    2.99  0.00E+00  X:
 O      6.65273E-01  U      2.40292E-01  PU     9.44356E-02


----------------------------------------

[OC parser] Parsed components
  O : moles=0.66527, x=0.66527, mu/RT=-25.715, activity=6.7937e-12, ref=GAS
  Pu : moles=0.094436, x=0.09444, mu/RT=-39.588, activity=6.4161e-18, ref=SER (default)
  U : moles=0.24029, x=0.24029, mu/RT=-40.258, activity=3.2814e-18, ref=SER (default)

[OC parser] Parsed phases
  Phase condensed : moles=1, volume=0
    Elements
      O = 0.665273
      Pu = 0.0944356
      U = 0.240292
    Species
      C1_MO2 : moles=1, volume=0
        O = 0.665273
        Pu = 0.0944356
        U = 0.240292
OpenCalphad attempt for 'at grain boundary' with WARM-START

[OC input] ./OCinput_fission_products.OCM
----------------------------------------
r u ./OCoutput_fission_products.OCU

set ref o gas * 100000

set c t=1290
set c p=540000
set c n(cs)=7.2041e-05
set c n(mo)=0.000103871
set c n(o)=0.999824
c e
set c n(o)=none
set c mu(o)=-551610

c w

save u ./OCoutput_fission_products Y

l /out=./OCoutput_fission_products.DAT r 1

fin
----------------------------------------

3A unfished preparations for XTDB


Open Calphad (OC) software version   6.106 , linked 2026-04-16
with command line monitor version  73

This program is available with a GNU General Public License.
either version 2 of the License, or any later version.
It includes the General Thermodynamic Package, version GTP-3.31,
Hillert's equilibrium calculation algorithm version HMS-3.0 ,
step/map/plot software version SMP-2.30 using GNUPLOT 5.2 graphics.
Numerical routines are extracted from LAPACK and BLAS and
the assessment procedure uses LMDIF from ANL.

Linked with OpenMp for parallel execution
 Warning, no environment variable OCHOME and no help file
 Working directory is: /home/ecappellari/transparant/sciantix-official/regression/test_JOG_MOX/point_08_r_2p3mm
--->OC6:
Read unformatted file: This is a save file for OC version:     OCF-3.20
Generated:  2026.04.19 21h34

 3E reading unformatted:        16432           0           0
3E Addition type   1, Inden-Hillert magn model for BCC_A2
3E Addition type   1, Inden-Hillert magn model for FCC_A1
3E Addition type   1, Inden-Hillert magn model for HCP_A3
 3E no experimental data
 3E no coefficient values saved
 3E Read assessment record
 No coefficients allocated
--->OC6:--->OC6:--->OC6:--->OC6:--->OC6:--->OC6:--->OC6:--->OC6:--->OC6:
Error codes:   4144     0    50
Message: Degrees of freedom not zero

--->OC6:--->OC6:--->OC6:--->OC6:Equilibrium result:   9 its,  1.0490E-03 s,      1 cc, GS= -1.7152599E+01 J/mol
3Y Testing if any gridpoint is below the calculated equilibrium
--->OC6:--->OC6:
Overwriting previous results on ./OCoutput_fission_products.OCU
3E allocating workspace:     123330          (   3330,   10000,    2)
 3E saving            3  symbols as texts
 3E used        12286  words out of       123330  for storing static data
 ceqrecsize not implemented          39
 3E Saving an equilibrium record requires     4092       0 words
 3E not storing unused equilibria from:            2
 3E Saving assessment record
 3E No experimental equilibrium range set
 3E allocating assessment head record          48
 3E no coefficients allocated
 3E no work array (assrec%wopt) allocated
Used    16466 words out of   123330,  13.35% for unformatted memory save
Written workspace      65864 bytes unformatted on ./OCoutput_fission_products.OCU
--->OC6:--->OC6:Output on file: ./OCoutput_fission_products.DAT
Output unit reset to screen:    6
--->OC6:--->OC6:
[OC output] ./OCoutput_fission_products.DAT
----------------------------------------

%%%%%%%%%% OC output written: 2026-04-19  21h34

Output for equilibrium:   1, DEFAULT_EQUILIBRIUM          2026.04.19
Conditions .................................................:
  1:T=1290, 2:P=540000, 3:N(CS)=7.2041E-05, 4:N(MO)=.000103871, 5:MU(O)=
    -551610
 Degrees of freedom are   0

Some global data, reference state SER ......................:
T=   1290.00 K (  1016.85 C), P=  5.4000E+05 Pa, V=  1.3322E-06 m3
N=   1.7591E-04 moles, B=   1.9540E-02 g, RT=   1.0726E+04 J/mol
G= -1.71526E+01 J, G/N=-9.7507E+04 J/mol, H= 9.5848E+00 J, S= 2.073E-02 J/K

Some data for components ...................................:
Component name    Moles      Mole-fr  Chem.pot/RT  Activities  Ref.state
CS                7.2041E-05  0.40953 -1.4113E+01  7.4247E-07  SER (default)   
MO                1.0387E-04  0.59047 -5.6076E+00  3.6698E-03  SER (default)   
O                 3.4386E-16  0.00000 -5.1429E+01  4.6216E-23  GAS             

Some data for phases .......................................:
Name                Status Moles      Volume    Form.Units Cmp/FU dGm/RT  Comp:
GAS..................... E  7.176E-05  1.33E-06  6.71E-05    1.07  0.00E+00  X:
 CS     1.00000E+00  O      7.12212E-17  MO     2.72270E-20
Constitution: There are    18 constituents:
 CS           9.30181E-01  O            2.93367E-30  MOO2         1.00000E-30
 CS2          6.98194E-02  MO2O6        1.00000E-30  MOO3         1.00000E-30
 CS2O         7.61936E-17  MO3O9        1.00000E-30  CS2O2        1.00000E-30
 MO           2.91280E-20  MO4O12       1.00000E-30  O2           1.00000E-30
 CSO          1.78640E-22  MO5O15       1.00000E-30  O3           1.00000E-30
 MO2          7.23538E-29  MOO          1.00000E-30  CS2MOO4      1.00000E-30

BCC_A2_CHKD#2........... E  1.042E-04  0.00E+00  1.04E-04    1.00  0.00E+00  X:
 MO     9.97270E-01  CS     2.73041E-03  O      3.30132E-12


----------------------------------------

[OC parser] Parsed components
  Cs : moles=7.2041e-05, x=0.40953, mu/RT=-14.113, activity=7.4247e-07, ref=SER (default)
  Mo : moles=0.00010387, x=0.59047, mu/RT=-5.6076, activity=0.0036698, ref=SER (default)
  O : moles=3.4386e-16, x=0, mu/RT=-51.429, activity=4.6216e-23, ref=GAS

[OC parser] Parsed phases
  Phase condensed : moles=0.0001042, volume=0
    Elements
      Cs = 2.84509e-07
      Mo = 0.000103916
      O = 3.43998e-16
    Species
      BCC_A2 : moles=0.0001042, volume=0
        Cs = 2.84509e-07
        Mo = 0.000103916
        O = 3.43998e-16
  Phase gas : moles=7.176e-05, volume=1.33e-06
    Elements
      Cs = 7.176e-05
      Mo = 1.95381e-24
      O = 5.11083e-21
    Species
      CS : moles=6.67498e-05, volume=0
      CS2 : moles=5.01024e-06, volume=0
      CS2MOO4 : moles=7.176e-35, volume=0
      CS2O : moles=5.46765e-21, volume=0
      CS2O2 : moles=7.176e-35, volume=0
      CSO : moles=1.28192e-26, volume=0
      MO : moles=2.09023e-24, volume=0
      MO2 : moles=5.19211e-33, volume=0
      MO2O6 : moles=7.176e-35, volume=0
      MO3O9 : moles=7.176e-35, volume=0
      MO4O12 : moles=7.176e-35, volume=0
      MO5O15 : moles=7.176e-35, volume=0
      MOO : moles=7.176e-35, volume=0
      MOO2 : moles=7.176e-35, volume=0
      MOO3 : moles=7.176e-35, volume=0
      O : moles=2.1052e-34, volume=0
      O2 : moles=7.176e-35, volume=0
      O3 : moles=7.176e-35, volume=0
      are : moles=0.00129168, volume=0
OpenCalphad attempt for 'matrix' with WARM-START

[OC input] ./OCinput_matrix.OCM
----------------------------------------
r u ./OCoutput_matrix.OCU

set ref o gas * 100000

set c t=1290
set c p=608000
set c n(o)=0.665555
set c n(pu)=0.0940517
set c n(u)=0.240394
c e
c w

save u ./OCoutput_matrix Y

l /out=./OCoutput_matrix.DAT r 1

fin
----------------------------------------

3A unfished preparations for XTDB


Open Calphad (OC) software version   6.106 , linked 2026-04-16
with command line monitor version  73

This program is available with a GNU General Public License.
either version 2 of the License, or any later version.
It includes the General Thermodynamic Package, version GTP-3.31,
Hillert's equilibrium calculation algorithm version HMS-3.0 ,
step/map/plot software version SMP-2.30 using GNUPLOT 5.2 graphics.
Numerical routines are extracted from LAPACK and BLAS and
the assessment procedure uses LMDIF from ANL.

Linked with OpenMp for parallel execution
 Warning, no environment variable OCHOME and no help file
 Working directory is: /home/ecappellari/transparant/sciantix-official/regression/test_JOG_MOX/point_08_r_2p3mm
--->OC6:
Read unformatted file: This is a save file for OC version:     OCF-3.20
Generated:  2026.04.19 21h34

 3E reading unformatted:        15024           0           0
3E Addition type   1, Inden-Hillert magn model for BCC_A2
3E Addition type   1, Inden-Hillert magn model for FCC_A1
 3E no experimental data
 3E no coefficient values saved
 3E Read assessment record
 No coefficients allocated
--->OC6:--->OC6:--->OC6:--->OC6:--->OC6:--->OC6:--->OC6:--->OC6:--->OC6:3Y Removed  1 gridpoints by merging
Gridmin:    7483 points   1.74E-02 s and      15 clockcycles, T= 1290.00
 3Y leaving global_gridmin
Phase change iteration:     5  -C1_MO2_AUTO#2
Phase change iteration:     9  +PU2O3
Phase change iteration:    13  +C1_MO2_AUTO#2
Phase change iteration:    17  -C1_MO2#1
Phase change iteration:    21  -PU2O3
Equilibrium result:  45 its,  2.1603E-02 s,     22 cc, GS= -4.1874453E+05 J/mol
--->OC6:Equilibrium result:  14 its,  9.3500E-04 s,      1 cc, GS= -4.1874453E+05 J/mol
3Y Testing if any gridpoint is below the calculated equilibrium
--->OC6:--->OC6:
Overwriting previous results on ./OCoutput_matrix.OCU
3E allocating workspace:     122160          (   2160,   10000,    2)
 3E saving            3  symbols as texts
 3E used        12117  words out of       122160  for storing static data
 ceqrecsize not implemented          26
 3E Saving an equilibrium record requires     2854       0 words
 3E not storing unused equilibria from:            2
 3E Saving assessment record
 3E No experimental equilibrium range set
 3E allocating assessment head record          48
 3E no coefficients allocated
 3E no work array (assrec%wopt) allocated
Used    15059 words out of   122160,  12.33% for unformatted memory save
Written workspace      60236 bytes unformatted on ./OCoutput_matrix.OCU
--->OC6:--->OC6:Output on file: ./OCoutput_matrix.DAT
Output unit reset to screen:    6
--->OC6:--->OC6:
[OC output] ./OCoutput_matrix.DAT
----------------------------------------

%%%%%%%%%% OC output written: 2026-04-19  21h34

Output for equilibrium:   1, DEFAULT_EQUILIBRIUM          2026.04.19
Conditions .................................................:
  1:T=1290, 2:P=608000, 3:N(O)=0.665555, 4:N(PU)=.0940517, 5:N(U)=0.240394
 Degrees of freedom are   0

Some global data, reference state SER ......................:
T=   1290.00 K (  1016.85 C), P=  6.0800E+05 Pa, V=  0.0000E+00 m3
N=   1.0000E+00 moles, B=   9.0823E+01 g, RT=   1.0726E+04 J/mol
G= -4.18745E+05 J, G/N=-4.1874E+05 J/mol, H=-3.3352E+05 J, S= 6.606E+01 J/K

Some data for components ...................................:
Component name    Moles      Mole-fr  Chem.pot/RT  Activities  Ref.state
O                 6.6555E-01  0.66555 -2.5377E+01  9.5228E-12  GAS             
PU                9.4052E-02  0.09405 -4.0370E+01  2.9356E-18  SER (default)   
U                 2.4039E-01  0.24039 -4.1051E+01  1.4854E-18  SER (default)   

Some data for phases .......................................:
Name                Status Moles      Volume    Form.Units Cmp/FU dGm/RT  Comp:
C1_MO2#1................ E  1.000E+00  0.00E+00  3.34E-01    2.99  0.00E+00  X:
 O      6.65555E-01  U      2.40394E-01  PU     9.40516E-02


----------------------------------------

[OC parser] Parsed components
  O : moles=0.66555, x=0.66555, mu/RT=-25.377, activity=9.5228e-12, ref=GAS
  Pu : moles=0.094052, x=0.09405, mu/RT=-40.37, activity=2.9356e-18, ref=SER (default)
  U : moles=0.24039, x=0.24039, mu/RT=-41.051, activity=1.4854e-18, ref=SER (default)

[OC parser] Parsed phases
  Phase condensed : moles=1, volume=0
    Elements
      O = 0.665555
      Pu = 0.0940516
      U = 0.240394
    Species
      C1_MO2 : moles=1, volume=0
        O = 0.665555
        Pu = 0.0940516
        U = 0.240394
OpenCalphad attempt for 'at grain boundary' with WARM-START

[OC input] ./OCinput_fission_products.OCM
----------------------------------------
r u ./OCoutput_fission_products.OCU

set ref o gas * 100000

set c t=1290
set c p=608000
set c n(cs)=9.41923e-05
set c n(mo)=0.000134488
set c n(o)=0.999771
c e
set c n(o)=none
set c mu(o)=-544359

c w

save u ./OCoutput_fission_products Y

l /out=./OCoutput_fission_products.DAT r 1

fin
----------------------------------------

3A unfished preparations for XTDB


Open Calphad (OC) software version   6.106 , linked 2026-04-16
with command line monitor version  73

This program is available with a GNU General Public License.
either version 2 of the License, or any later version.
It includes the General Thermodynamic Package, version GTP-3.31,
Hillert's equilibrium calculation algorithm version HMS-3.0 ,
step/map/plot software version SMP-2.30 using GNUPLOT 5.2 graphics.
Numerical routines are extracted from LAPACK and BLAS and
the assessment procedure uses LMDIF from ANL.

Linked with OpenMp for parallel execution
 Warning, no environment variable OCHOME and no help file
 Working directory is: /home/ecappellari/transparant/sciantix-official/regression/test_JOG_MOX/point_08_r_2p3mm
--->OC6:
Read unformatted file: This is a save file for OC version:     OCF-3.20
Generated:  2026.04.19 21h34

 3E reading unformatted:        16431           0           0
3E Addition type   1, Inden-Hillert magn model for BCC_A2
3E Addition type   1, Inden-Hillert magn model for FCC_A1
3E Addition type   1, Inden-Hillert magn model for HCP_A3
 3E no experimental data
 3E no coefficient values saved
 3E Read assessment record
 No coefficients allocated
--->OC6:--->OC6:--->OC6:--->OC6:--->OC6:--->OC6:--->OC6:--->OC6:--->OC6:
Error codes:   4144     0    50
Message: Degrees of freedom not zero

--->OC6:--->OC6:--->OC6:--->OC6:Equilibrium result:   9 its,  6.7300E-04 s,      1 cc, GS= -2.2236076E+01 J/mol
3Y Testing if any gridpoint is below the calculated equilibrium
--->OC6:--->OC6:
Overwriting previous results on ./OCoutput_fission_products.OCU
3E allocating workspace:     123330          (   3330,   10000,    2)
 3E saving            3  symbols as texts
 3E used        12286  words out of       123330  for storing static data
 ceqrecsize not implemented          39
 3E Saving an equilibrium record requires     4092       0 words
 3E not storing unused equilibria from:            2
 3E Saving assessment record
 3E No experimental equilibrium range set
 3E allocating assessment head record          48
 3E no coefficients allocated
 3E no work array (assrec%wopt) allocated
Used    16466 words out of   123330,  13.35% for unformatted memory save
Written workspace      65864 bytes unformatted on ./OCoutput_fission_products.OCU
--->OC6:--->OC6:Output on file: ./OCoutput_fission_products.DAT
Output unit reset to screen:    6
--->OC6:--->OC6:
[OC output] ./OCoutput_fission_products.DAT
----------------------------------------

%%%%%%%%%% OC output written: 2026-04-19  21h34

Output for equilibrium:   1, DEFAULT_EQUILIBRIUM          2026.04.19
Conditions .................................................:
  1:T=1290, 2:P=608000, 3:N(CS)=9.41923E-05, 4:N(MO)=.000134488, 5:MU(O)=
    -544359
 Degrees of freedom are   0

Some global data, reference state SER ......................:
T=   1290.00 K (  1016.85 C), P=  6.0800E+05 Pa, V=  1.5356E-06 m3
N=   2.2868E-04 moles, B=   2.5422E-02 g, RT=   1.0726E+04 J/mol
G= -2.22361E+01 J, G/N=-9.7237E+04 J/mol, H= 1.2466E+01 J, S= 2.690E-02 J/K

Some data for components ...................................:
Component name    Moles      Mole-fr  Chem.pot/RT  Activities  Ref.state
CS                9.4192E-05  0.41190 -1.4003E+01  8.2920E-07  SER (default)   
MO                1.3449E-04  0.58810 -5.6079E+00  3.6687E-03  SER (default)   
O                 4.4537E-16  0.00000 -5.0753E+01  9.0863E-23  GAS             

Some data for phases .......................................:
Name                Status Moles      Volume    Form.Units Cmp/FU dGm/RT  Comp:
GAS..................... E  9.378E-05  1.54E-06  8.70E-05    1.08  0.00E+00  X:
 CS     1.00000E+00  O      1.63446E-16  MO     2.40053E-20
Constitution: There are    18 constituents:
 CS           9.22655E-01  O            5.43571E-30  MOO2         1.00000E-30
 CS2          7.73446E-02  MO2O6        1.00000E-30  MOO3         1.00000E-30
 CS2O         1.76087E-16  MO3O9        1.00000E-30  CS2O2        1.00000E-30
 MO           2.58620E-20  MO4O12       1.00000E-30  O2           1.00000E-30
 CSO          3.69662E-22  MO5O15       1.00000E-30  O3           1.00000E-30
 MO2          6.42205E-29  MOO          1.00000E-30  CS2MOO4      1.00000E-30

BCC_A2_CHKD#2........... E  1.349E-04  0.00E+00  1.35E-04    1.00  0.00E+00  X:
 MO     9.96941E-01  CS     3.05869E-03  O      3.30132E-12


----------------------------------------

[OC parser] Parsed components
  Cs : moles=9.4192e-05, x=0.4119, mu/RT=-14.003, activity=8.292e-07, ref=SER (default)
  Mo : moles=0.00013449, x=0.5881, mu/RT=-5.6079, activity=0.0036687, ref=SER (default)
  O : moles=4.4537e-16, x=0, mu/RT=-50.753, activity=9.0863e-23, ref=GAS

[OC parser] Parsed phases
  Phase condensed : moles=0.0001349, volume=0
    Elements
      Cs = 4.12617e-07
      Mo = 0.000134487
      O = 4.45348e-16
    Species
      BCC_A2 : moles=0.0001349, volume=0
        Cs = 4.12617e-07
        Mo = 0.000134487
        O = 4.45348e-16
  Phase gas : moles=9.378e-05, volume=1.54e-06
    Elements
      Cs = 9.378e-05
      Mo = 2.25122e-24
      O = 1.5328e-20
    Species
      CS : moles=8.65266e-05, volume=0
      CS2 : moles=7.25338e-06, volume=0
      CS2MOO4 : moles=9.378e-35, volume=0
      CS2O : moles=1.65134e-20, volume=0
      CS2O2 : moles=9.378e-35, volume=0
      CSO : moles=3.46669e-26, volume=0
      MO : moles=2.42534e-24, volume=0
      MO2 : moles=6.0226e-33, volume=0
      MO2O6 : moles=9.378e-35, volume=0
      MO3O9 : moles=9.378e-35, volume=0
      MO4O12 : moles=9.378e-35, volume=0
      MO5O15 : moles=9.378e-35, volume=0
      MOO : moles=9.378e-35, volume=0
      MOO2 : moles=9.378e-35, volume=0
      MOO3 : moles=9.378e-35, volume=0
      O : moles=5.09761e-34, volume=0
      O2 : moles=9.378e-35, volume=0
      O3 : moles=9.378e-35, volume=0
      are : moles=0.00168804, volume=0
OpenCalphad attempt for 'matrix' with WARM-START

[OC input] ./OCinput_matrix.OCM
----------------------------------------
r u ./OCoutput_matrix.OCU

set ref o gas * 100000

set c t=1290
set c p=676000
set c n(o)=0.665837
set c n(pu)=0.0936674
set c n(u)=0.240496
c e
c w

save u ./OCoutput_matrix Y

l /out=./OCoutput_matrix.DAT r 1

fin
----------------------------------------

3A unfished preparations for XTDB


Open Calphad (OC) software version   6.106 , linked 2026-04-16
with command line monitor version  73

This program is available with a GNU General Public License.
either version 2 of the License, or any later version.
It includes the General Thermodynamic Package, version GTP-3.31,
Hillert's equilibrium calculation algorithm version HMS-3.0 ,
step/map/plot software version SMP-2.30 using GNUPLOT 5.2 graphics.
Numerical routines are extracted from LAPACK and BLAS and
the assessment procedure uses LMDIF from ANL.

Linked with OpenMp for parallel execution
 Warning, no environment variable OCHOME and no help file
 Working directory is: /home/ecappellari/transparant/sciantix-official/regression/test_JOG_MOX/point_08_r_2p3mm
--->OC6:
Read unformatted file: This is a save file for OC version:     OCF-3.20
Generated:  2026.04.19 21h34

 3E reading unformatted:        15024           0           0
3E Addition type   1, Inden-Hillert magn model for BCC_A2
3E Addition type   1, Inden-Hillert magn model for FCC_A1
 3E no experimental data
 3E no coefficient values saved
 3E Read assessment record
 No coefficients allocated
--->OC6:--->OC6:--->OC6:--->OC6:--->OC6:--->OC6:--->OC6:--->OC6:--->OC6:3Y Removed  1 gridpoints by merging
Gridmin:    7483 points   1.69E-02 s and      14 clockcycles, T= 1290.00
 3Y leaving global_gridmin
Phase change iteration:     5  -C1_MO2_AUTO#2
Phase change iteration:     9  +PU2O3
Phase change iteration:    13  -PU2O3
Equilibrium result:  37 its,  2.0177E-02 s,     21 cc, GS= -4.1873631E+05 J/mol
--->OC6:Equilibrium result:   9 its,  6.1100E-04 s,      1 cc, GS= -4.1873631E+05 J/mol
3Y Testing if any gridpoint is below the calculated equilibrium
--->OC6:--->OC6:
Overwriting previous results on ./OCoutput_matrix.OCU
3E allocating workspace:     122160          (   2160,   10000,    2)
 3E saving            3  symbols as texts
 3E used        12117  words out of       122160  for storing static data
 ceqrecsize not implemented          26
 3E Saving an equilibrium record requires     2854       0 words
 3E not storing unused equilibria from:            2
 3E Saving assessment record
 3E No experimental equilibrium range set
 3E allocating assessment head record          48
 3E no coefficients allocated
 3E no work array (assrec%wopt) allocated
Used    15059 words out of   122160,  12.33% for unformatted memory save
Written workspace      60236 bytes unformatted on ./OCoutput_matrix.OCU
--->OC6:--->OC6:Output on file: ./OCoutput_matrix.DAT
Output unit reset to screen:    6
--->OC6:--->OC6:
[OC output] ./OCoutput_matrix.DAT
----------------------------------------

%%%%%%%%%% OC output written: 2026-04-19  21h34

Output for equilibrium:   1, DEFAULT_EQUILIBRIUM          2026.04.19
Conditions .................................................:
  1:T=1290, 2:P=676000, 3:N(O)=0.665837, 4:N(PU)=.0936674, 5:N(U)=0.240496
 Degrees of freedom are   0

Some global data, reference state SER ......................:
T=   1290.00 K (  1016.85 C), P=  6.7600E+05 Pa, V=  0.0000E+00 m3
N=   1.0000E+00 moles, B=   9.0758E+01 g, RT=   1.0726E+04 J/mol
G= -4.18736E+05 J, G/N=-4.1874E+05 J/mol, H=-3.3361E+05 J, S= 6.599E+01 J/K

Some data for components ...................................:
Component name    Moles      Mole-fr  Chem.pot/RT  Activities  Ref.state
O                 6.6584E-01  0.66584 -2.4955E+01  1.4522E-11  GAS             
PU                9.3667E-02  0.09367 -4.1307E+01  1.1500E-18  SER (default)   
U                 2.4050E-01  0.24050 -4.2000E+01  5.7493E-19  SER (default)   

Some data for phases .......................................:
Name                Status Moles      Volume    Form.Units Cmp/FU dGm/RT  Comp:
C1_MO2#1................ E  1.000E+00  0.00E+00  3.34E-01    2.99  0.00E+00  X:
 O      6.65837E-01  U      2.40496E-01  PU     9.36674E-02


----------------------------------------

[OC parser] Parsed components
  O : moles=0.66584, x=0.66584, mu/RT=-24.955, activity=1.4522e-11, ref=GAS
  Pu : moles=0.093667, x=0.09367, mu/RT=-41.307, activity=1.15e-18, ref=SER (default)
  U : moles=0.2405, x=0.2405, mu/RT=-42, activity=5.7493e-19, ref=SER (default)

[OC parser] Parsed phases
  Phase condensed : moles=1, volume=0
    Elements
      O = 0.665837
      Pu = 0.0936674
      U = 0.240496
    Species
      C1_MO2 : moles=1, volume=0
        O = 0.665837
        Pu = 0.0936674
        U = 0.240496
OpenCalphad attempt for 'at grain boundary' with WARM-START

[OC input] ./OCinput_fission_products.OCM
----------------------------------------
r u ./OCoutput_fission_products.OCU

set ref o gas * 100000

set c t=1290
set c p=676000
set c n(cs)=0.000118369
set c n(mo)=0.00016748
set c n(o)=0.999714
c e
set c n(o)=none
set c mu(o)=-535307

c w

save u ./OCoutput_fission_products Y

l /out=./OCoutput_fission_products.DAT r 1

fin
----------------------------------------

3A unfished preparations for XTDB


Open Calphad (OC) software version   6.106 , linked 2026-04-16
with command line monitor version  73

This program is available with a GNU General Public License.
either version 2 of the License, or any later version.
It includes the General Thermodynamic Package, version GTP-3.31,
Hillert's equilibrium calculation algorithm version HMS-3.0 ,
step/map/plot software version SMP-2.30 using GNUPLOT 5.2 graphics.
Numerical routines are extracted from LAPACK and BLAS and
the assessment procedure uses LMDIF from ANL.

Linked with OpenMp for parallel execution
 Warning, no environment variable OCHOME and no help file
 Working directory is: /home/ecappellari/transparant/sciantix-official/regression/test_JOG_MOX/point_08_r_2p3mm
--->OC6:
Read unformatted file: This is a save file for OC version:     OCF-3.20
Generated:  2026.04.19 21h34

 3E reading unformatted:        16431           0           0
3E Addition type   1, Inden-Hillert magn model for BCC_A2
3E Addition type   1, Inden-Hillert magn model for FCC_A1
3E Addition type   1, Inden-Hillert magn model for HCP_A3
 3E no experimental data
 3E no coefficient values saved
 3E Read assessment record
 No coefficients allocated
--->OC6:--->OC6:--->OC6:--->OC6:--->OC6:--->OC6:--->OC6:--->OC6:--->OC6:
Error codes:   4144     0    50
Message: Degrees of freedom not zero

--->OC6:--->OC6:--->OC6:--->OC6:Equilibrium result:   9 its,  7.3900E-04 s,      0 cc, GS= -2.7727662E+01 J/mol
3Y Testing if any gridpoint is below the calculated equilibrium
--->OC6:--->OC6:
Overwriting previous results on ./OCoutput_fission_products.OCU
3E allocating workspace:     123330          (   3330,   10000,    2)
 3E saving            3  symbols as texts
 3E used        12286  words out of       123330  for storing static data
 ceqrecsize not implemented          39
 3E Saving an equilibrium record requires     4092       0 words
 3E not storing unused equilibria from:            2
 3E Saving assessment record
 3E No experimental equilibrium range set
 3E allocating assessment head record          48
 3E no coefficients allocated
 3E no work array (assrec%wopt) allocated
Used    16466 words out of   123330,  13.35% for unformatted memory save
Written workspace      65864 bytes unformatted on ./OCoutput_fission_products.OCU
--->OC6:--->OC6:Output on file: ./OCoutput_fission_products.DAT
Output unit reset to screen:    6
--->OC6:--->OC6:
[OC output] ./OCoutput_fission_products.DAT
----------------------------------------

%%%%%%%%%% OC output written: 2026-04-19  21h34

Output for equilibrium:   1, DEFAULT_EQUILIBRIUM          2026.04.19
Conditions .................................................:
  1:T=1290, 2:P=676000, 3:N(CS)=.000118369, 4:N(MO)=.00016748, 5:MU(O)=
    -535307
 Degrees of freedom are   0

Some global data, reference state SER ......................:
T=   1290.00 K (  1016.85 C), P=  6.7600E+05 Pa, V=  1.7232E-06 m3
N=   2.8585E-04 moles, B=   3.1800E-02 g, RT=   1.0726E+04 J/mol
G= -2.77277E+01 J, G/N=-9.7001E+04 J/mol, H= 1.5588E+01 J, S= 3.358E-02 J/K

Some data for components ...................................:
Component name    Moles      Mole-fr  Chem.pot/RT  Activities  Ref.state
CS                1.1837E-04  0.41410 -1.3905E+01  9.1465E-07  SER (default)   
MO                1.6748E-04  0.58590 -5.6082E+00  3.6675E-03  SER (default)   
O                 5.5483E-16  0.00000 -4.9909E+01  2.1131E-22  GAS             

Some data for phases .......................................:
Name                Status Moles      Volume    Form.Units Cmp/FU dGm/RT  Comp:
GAS..................... E  1.178E-04  1.72E-06  1.09E-04    1.08  0.00E+00  X:
 CS     1.00000E+00  O      4.35648E-16  MO     2.14385E-20
Constitution: There are    18 constituents:
 CS           9.15360E-01  O            1.19883E-29  MOO2         1.00000E-30
 CS2          8.46404E-02  MO2O6        1.00000E-30  MOO3         1.00000E-30
 CS2O         4.72521E-16  MO3O9        1.00000E-30  CS2O2        1.00000E-30
 MO           2.32531E-20  MO4O12       1.00000E-30  O2           1.00000E-30
 CSO          8.99295E-22  MO5O15       1.00000E-30  O3           1.00000E-30
 MO2          5.77238E-29  MOO          1.00000E-30  CS2MOO4      1.00000E-30

BCC_A2_CHKD#2........... E  1.680E-04  0.00E+00  1.68E-04    1.00  0.00E+00  X:
 MO     9.96616E-01  CS     3.38411E-03  O      3.30132E-12


----------------------------------------

[OC parser] Parsed components
  Cs : moles=0.00011837, x=0.4141, mu/RT=-13.905, activity=9.1465e-07, ref=SER (default)
  Mo : moles=0.00016748, x=0.5859, mu/RT=-5.6082, activity=0.0036675, ref=SER (default)
  O : moles=5.5483e-16, x=0, mu/RT=-49.909, activity=2.1131e-22, ref=GAS

[OC parser] Parsed phases
  Phase condensed : moles=0.000168, volume=0
    Elements
      Cs = 5.6853e-07
      Mo = 0.000167431
      O = 5.54622e-16
    Species
      BCC_A2 : moles=0.000168, volume=0
        Cs = 5.6853e-07
        Mo = 0.000167431
        O = 5.54622e-16
  Phase gas : moles=0.0001178, volume=1.72e-06
    Elements
      Cs = 0.0001178
      Mo = 2.52546e-24
      O = 5.13193e-20
    Species
      CS : moles=0.000107829, volume=0
      CS2 : moles=9.97064e-06, volume=0
      CS2MOO4 : moles=1.178e-34, volume=0
      CS2O : moles=5.5663e-20, volume=0
      CS2O2 : moles=1.178e-34, volume=0
      CSO : moles=1.05937e-25, volume=0
      MO : moles=2.73922e-24, volume=0
      MO2 : moles=6.79986e-33, volume=0
      MO2O6 : moles=1.178e-34, volume=0
      MO3O9 : moles=1.178e-34, volume=0
      MO4O12 : moles=1.178e-34, volume=0
      MO5O15 : moles=1.178e-34, volume=0
      MOO : moles=1.178e-34, volume=0
      MOO2 : moles=1.178e-34, volume=0
      MOO3 : moles=1.178e-34, volume=0
      O : moles=1.41222e-33, volume=0
      O2 : moles=1.178e-34, volume=0
      O3 : moles=1.178e-34, volume=0
      are : moles=0.0021204, volume=0
OpenCalphad attempt for 'matrix' with WARM-START

[OC input] ./OCinput_matrix.OCM
----------------------------------------
r u ./OCoutput_matrix.OCU

set ref o gas * 100000

set c t=1290
set c p=744000
set c n(o)=0.66612
set c n(pu)=0.0932827
set c n(u)=0.240598
c e
c w

save u ./OCoutput_matrix Y

l /out=./OCoutput_matrix.DAT r 1

fin
----------------------------------------

3A unfished preparations for XTDB


Open Calphad (OC) software version   6.106 , linked 2026-04-16
[...]

Some data for phases .......................................:
Name                Status Moles      Volume    Form.Units Cmp/FU dGm/RT  Comp:
C1_MO2#1................ E  8.132E-01  0.00E+00  2.56E-01    3.18  0.00E+00  X:
 O      6.85354E-01  U      2.45238E-01  PU     6.94073E-02

U3O8_S4................. E  1.868E-01  0.00E+00  1.70E-02   11.00  0.00E+00  X:
 O      7.27273E-01  U      2.72727E-01  PU     0.00000E+00


----------------------------------------

[OC parser] Parsed components
  O : moles=0.69319, x=0.69319, mu/RT=-6.746, activity=0.0011756, ref=GAS
  Pu : moles=0.05644, x=0.05644, mu/RT=-80.007, activity=1.7928e-35, ref=SER (default)
  U : moles=0.25037, x=0.25037, mu/RT=-81.451, activity=4.2287e-36, ref=SER (default)

[OC parser] Parsed phases
  Phase condensed : moles=1, volume=0
    Elements
      O = 0.693184
      Pu = 0.056442
      U = 0.250373
    Species
      C1_MO2 : moles=0.8132, volume=0
        O = 0.55733
        Pu = 0.056442
        U = 0.199428
      U3O8_S4 : moles=0.1868, volume=0
        O = 0.135855
        Pu = 0
        U = 0.0509454
OpenCalphad attempt for 'at grain boundary' with WARM-START

[OC input] ./OCinput_fission_products.OCM
----------------------------------------
r u ./OCoutput_fission_products.OCU

set ref o gas * 100000

set c t=1290
set c p=7e+06
set c n(cs)=0.00537632
set c n(mo)=0.00727779
set c n(o)=0.987346
c e
set c n(o)=none
set c mu(o)=-144708

c w

save u ./OCoutput_fission_products Y

l /out=./OCoutput_fission_products.DAT r 1

fin
----------------------------------------

3A unfished preparations for XTDB


Open Calphad (OC) software version   6.106 , linked 2026-04-16
with command line monitor version  73

This program is available with a GNU General Public License.
either version 2 of the License, or any later version.
It includes the General Thermodynamic Package, version GTP-3.31,
Hillert's equilibrium calculation algorithm version HMS-3.0 ,
step/map/plot software version SMP-2.30 using GNUPLOT 5.2 graphics.
Numerical routines are extracted from LAPACK and BLAS and
the assessment procedure uses LMDIF from ANL.

Linked with OpenMp for parallel execution
 Warning, no environment variable OCHOME and no help file
 Working directory is: /home/ecappellari/transparant/sciantix-official/regression/test_JOG_MOX/point_08_r_2p3mm
--->OC6:
Read unformatted file: This is a save file for OC version:     OCF-3.20
Generated:  2026.04.19 21h34

 3E reading unformatted:        16550           0           0
3E Addition type   1, Inden-Hillert magn model for BCC_A2
3E Addition type   1, Inden-Hillert magn model for FCC_A1
3E Addition type   1, Inden-Hillert magn model for HCP_A3
 3E no experimental data
 3E no coefficient values saved
 3E Read assessment record
 No coefficients allocated
--->OC6:--->OC6:--->OC6:--->OC6:--->OC6:--->OC6:--->OC6:--->OC6:--->OC6:
Error codes:   4144     0    50
Message: Degrees of freedom not zero

--->OC6:--->OC6:--->OC6:--->OC6:Equilibrium result:   9 its,  7.0000E-04 s,      1 cc, GS= -9.5490449E+03 J/mol
3Y Testing if any gridpoint is below the calculated equilibrium
--->OC6:--->OC6:
Overwriting previous results on ./OCoutput_fission_products.OCU
3E allocating workspace:     123330          (   3330,   10000,    2)
 3E saving            3  symbols as texts
 3E used        12291  words out of       123330  for storing static data
 ceqrecsize not implemented          40
 3E Saving an equilibrium record requires     4206       0 words
 3E not storing unused equilibria from:            2
 3E Saving assessment record
 3E No experimental equilibrium range set
 3E allocating assessment head record          48
 3E no coefficients allocated
 3E no work array (assrec%wopt) allocated
Used    16585 words out of   123330,  13.45% for unformatted memory save
Written workspace      66340 bytes unformatted on ./OCoutput_fission_products.OCU
--->OC6:--->OC6:Output on file: ./OCoutput_fission_products.DAT
Output unit reset to screen:    6
--->OC6:--->OC6:
[OC output] ./OCoutput_fission_products.DAT
----------------------------------------

%%%%%%%%%% OC output written: 2026-04-19  21h34

Output for equilibrium:   1, DEFAULT_EQUILIBRIUM          2026.04.19
Conditions .................................................:
  1:T=1290, 2:P=7000000, 3:N(CS)=.00537632, 4:N(MO)=.00727779, 5:MU(O)=
    -144708
 Degrees of freedom are   0

Some global data, reference state SER ......................:
T=   1290.00 K (  1016.85 C), P=  7.0000E+06 Pa, V=  0.0000E+00 m3
N=   3.5741E-02 moles, B=   1.7822E+00 g, RT=   1.0726E+04 J/mol
G= -9.54904E+03 J, G/N=-2.6717E+05 J/mol, H=-6.2319E+03 J, S= 2.571E+00 J/K

Some data for components ...................................:
Component name    Moles      Mole-fr  Chem.pot/RT  Activities  Ref.state
CS                5.3763E-03  0.15042 -3.6110E+01  2.0772E-16  SER (default)   
MO                7.2778E-03  0.20362 -1.6284E+01  8.4725E-08  SER (default)   
O                 2.3087E-02  0.64595 -1.3492E+01  1.3824E-06  GAS             

Some data for phases .......................................:
Name                Status Moles      Volume    Form.Units Cmp/FU dGm/RT  Comp:
LIQUID.................. E  3.144E-02  0.00E+00  5.84E-03    5.38  0.00E+00  X:
 O      6.43117E-01  MO     1.85870E-01  CS     1.71013E-01

MOO2.................... E  4.303E-03  0.00E+00  1.43E-03    3.00  0.00E+00  X:
 O      6.66667E-01  MO     3.33333E-01  CS     0.00000E+00


----------------------------------------

[OC parser] Parsed components
  Cs : moles=0.0053763, x=0.15042, mu/RT=-36.11, activity=2.0772e-16, ref=SER (default)
  Mo : moles=0.0072778, x=0.20362, mu/RT=-16.284, activity=8.4725e-08, ref=SER (default)
  O : moles=0.023087, x=0.64595, mu/RT=-13.492, activity=1.3824e-06, ref=GAS

[OC parser] Parsed phases
  Phase condensed : moles=0.004303, volume=0
    Elements
      Cs = 0
      Mo = 0.00143433
      O = 0.00286867
    Species
      MOO2 : moles=0.004303, volume=0
        Cs = 0
        Mo = 0.00143433
        O = 0.00286867
  Phase liquid : moles=0.03144, volume=0
    Elements
      Cs = 0.00537665
      Mo = 0.00584375
      O = 0.0202196
OpenCalphad attempt for 'matrix' with WARM-START

[OC input] ./OCinput_matrix.OCM
----------------------------------------
r u ./OCoutput_matrix.OCU

set ref o gas * 100000

set c t=1290
set c p=7e+06
set c n(o)=0.693186
set c n(pu)=0.05644
set c n(u)=0.250374
c e
c w

save u ./OCoutput_matrix Y

l /out=./OCoutput_matrix.DAT r 1

fin
----------------------------------------

3A unfished preparations for XTDB


Open Calphad (OC) software version   6.106 , linked 2026-04-16
with command line monitor version  73

This program is available with a GNU General Public License.
either version 2 of the License, or any later version.
It includes the General Thermodynamic Package, version GTP-3.31,
Hillert's equilibrium calculation algorithm version HMS-3.0 ,
step/map/plot software version SMP-2.30 using GNUPLOT 5.2 graphics.
Numerical routines are extracted from LAPACK and BLAS and
the assessment procedure uses LMDIF from ANL.

Linked with OpenMp for parallel execution
 Warning, no environment variable OCHOME and no help file
 Working directory is: /home/ecappellari/transparant/sciantix-official/regression/test_JOG_MOX/point_08_r_2p3mm
--->OC6:
Read unformatted file: This is a save file for OC version:     OCF-3.20
Generated:  2026.04.19 21h34

 3E reading unformatted:        15024           0           0
3E Addition type   1, Inden-Hillert magn model for BCC_A2
3E Addition type   1, Inden-Hillert magn model for FCC_A1
 3E no experimental data
 3E no coefficient values saved
 3E Read assessment record
 No coefficients allocated
--->OC6:--->OC6:--->OC6:--->OC6:--->OC6:--->OC6:--->OC6:--->OC6:--->OC6:Gridmin:    7483 points   2.59E-02 s and      25 clockcycles, T= 1290.00
 3Y leaving global_gridmin
Phase change iteration:     4  -C1_MO2_AUTO#2
Equilibrium result:  26 its,  2.7915E-02 s,     28 cc, GS= -4.0303380E+05 J/mol
--->OC6:Equilibrium result:   9 its,  6.3400E-04 s,      1 cc, GS= -4.0303380E+05 J/mol
3Y Testing if any gridpoint is below the calculated equilibrium
--->OC6:--->OC6:
Overwriting previous results on ./OCoutput_matrix.OCU
3E allocating workspace:     122160          (   2160,   10000,    2)
 3E saving            3  symbols as texts
 3E used        12117  words out of       122160  for storing static data
 ceqrecsize not implemented          26
 3E Saving an equilibrium record requires     2854       0 words
 3E not storing unused equilibria from:            2
 3E Saving assessment record
 3E No experimental equilibrium range set
 3E allocating assessment head record          48
 3E no coefficients allocated
 3E no work array (assrec%wopt) allocated
Used    15059 words out of   122160,  12.33% for unformatted memory save
Written workspace      60236 bytes unformatted on ./OCoutput_matrix.OCU
--->OC6:--->OC6:Output on file: ./OCoutput_matrix.DAT
Output unit reset to screen:    6
--->OC6:--->OC6:
[OC output] ./OCoutput_matrix.DAT
----------------------------------------

%%%%%%%%%% OC output written: 2026-04-19  21h34

Output for equilibrium:   1, DEFAULT_EQUILIBRIUM          2026.04.19
Conditions .................................................:
  1:T=1290, 2:P=7000000, 3:N(O)=0.693186, 4:N(PU)=.05644, 5:N(U)=0.250374
 Degrees of freedom are   0

Some global data, reference state SER ......................:
T=   1290.00 K (  1016.85 C), P=  7.0000E+06 Pa, V=  0.0000E+00 m3
N=   1.0000E+00 moles, B=   8.4462E+01 g, RT=   1.0726E+04 J/mol
G= -4.03034E+05 J, G/N=-4.0303E+05 J/mol, H=-3.1914E+05 J, S= 6.504E+01 J/K

Some data for components ...................................:
Component name    Moles      Mole-fr  Chem.pot/RT  Activities  Ref.state
O                 6.9319E-01  0.69319 -6.7460E+00  1.1756E-03  GAS             
PU                5.6440E-02  0.05644 -8.0007E+01  1.7928E-35  SER (default)   
U                 2.5037E-01  0.25037 -8.1451E+01  4.2287E-36  SER (default)   

Some data for phases .......................................:
Name                Status Moles      Volume    Form.Units Cmp/FU dGm/RT  Comp:
C1_MO2#1................ E  8.132E-01  0.00E+00  2.56E-01    3.18  0.00E+00  X:
 O      6.85354E-01  U      2.45238E-01  PU     6.94073E-02

U3O8_S4................. E  1.868E-01  0.00E+00  1.70E-02   11.00  0.00E+00  X:
 O      7.27273E-01  U      2.72727E-01  PU     0.00000E+00


----------------------------------------

[OC parser] Parsed components
  O : moles=0.69319, x=0.69319, mu/RT=-6.746, activity=0.0011756, ref=GAS
  Pu : moles=0.05644, x=0.05644, mu/RT=-80.007, activity=1.7928e-35, ref=SER (default)
  U : moles=0.25037, x=0.25037, mu/RT=-81.451, activity=4.2287e-36, ref=SER (default)

[OC parser] Parsed phases
  Phase condensed : moles=1, volume=0
    Elements
      O = 0.693184
      Pu = 0.056442
      U = 0.250373
    Species
      C1_MO2 : moles=0.8132, volume=0
        O = 0.55733
        Pu = 0.056442
        U = 0.199428
      U3O8_S4 : moles=0.1868, volume=0
        O = 0.135855
        Pu = 0
        U = 0.0509454
OpenCalphad attempt for 'at grain boundary' with WARM-START

[OC input] ./OCinput_fission_products.OCM
----------------------------------------
r u ./OCoutput_fission_products.OCU

set ref o gas * 100000

set c t=1290
set c p=7e+06
set c n(cs)=0.00537632
set c n(mo)=0.00727779
set c n(o)=0.987346
c e
set c n(o)=none
set c mu(o)=-144708

c w

save u ./OCoutput_fission_products Y

l /out=./OCoutput_fission_products.DAT r 1

fin
----------------------------------------

3A unfished preparations for XTDB


Open Calphad (OC) software version   6.106 , linked 2026-04-16
with command line monitor version  73

This program is available with a GNU General Public License.
either version 2 of the License, or any later version.
It includes the General Thermodynamic Package, version GTP-3.31,
Hillert's equilibrium calculation algorithm version HMS-3.0 ,
step/map/plot software version SMP-2.30 using GNUPLOT 5.2 graphics.
Numerical routines are extracted from LAPACK and BLAS and
the assessment procedure uses LMDIF from ANL.

Linked with OpenMp for parallel execution
 Warning, no environment variable OCHOME and no help file
 Working directory is: /home/ecappellari/transparant/sciantix-official/regression/test_JOG_MOX/point_08_r_2p3mm
--->OC6:
Read unformatted file: This is a save file for OC version:     OCF-3.20
Generated:  2026.04.19 21h34

 3E reading unformatted:        16550           0           0
3E Addition type   1, Inden-Hillert magn model for BCC_A2
3E Addition type   1, Inden-Hillert magn model for FCC_A1
3E Addition type   1, Inden-Hillert magn model for HCP_A3
 3E no experimental data
 3E no coefficient values saved
 3E Read assessment record
 No coefficients allocated
--->OC6:--->OC6:--->OC6:--->OC6:--->OC6:--->OC6:--->OC6:--->OC6:--->OC6:
Error codes:   4144     0    50
Message: Degrees of freedom not zero

--->OC6:--->OC6:--->OC6:--->OC6:Equilibrium result:  28 its,  2.4970E-03 s,      3 cc, GS= -9.5490558E+03 J/mol
3Y Testing if any gridpoint is below the calculated equilibrium
--->OC6:--->OC6:
Overwriting previous results on ./OCoutput_fission_products.OCU
3E allocating workspace:     123330          (   3330,   10000,    2)
 3E saving            3  symbols as texts
 3E used        12291  words out of       123330  for storing static data
 ceqrecsize not implemented          40
 3E Saving an equilibrium record requires     4206       0 words
 3E not storing unused equilibria from:            2
 3E Saving assessment record
 3E No experimental equilibrium range set
 3E allocating assessment head record          48
 3E no coefficients allocated
 3E no work array (assrec%wopt) allocated
Used    16585 words out of   123330,  13.45% for unformatted memory save
Written workspace      66340 bytes unformatted on ./OCoutput_fission_products.OCU
--->OC6:--->OC6:Output on file: ./OCoutput_fission_products.DAT
Output unit reset to screen:    6
--->OC6:--->OC6:
[OC output] ./OCoutput_fission_products.DAT
----------------------------------------

%%%%%%%%%% OC output written: 2026-04-19  21h34

Output for equilibrium:   1, DEFAULT_EQUILIBRIUM          2026.04.19
Conditions .................................................:
  1:T=1290, 2:P=7000000, 3:N(CS)=.00537632, 4:N(MO)=.00727779, 5:MU(O)=
    -144708
 Degrees of freedom are   0

Some global data, reference state SER ......................:
T=   1290.00 K (  1016.85 C), P=  7.0000E+06 Pa, V=  0.0000E+00 m3
N=   3.5741E-02 moles, B=   1.7822E+00 g, RT=   1.0726E+04 J/mol
G= -9.54906E+03 J, G/N=-2.6717E+05 J/mol, H=-6.2319E+03 J, S= 2.571E+00 J/K

Some data for components ...................................:
Component name    Moles      Mole-fr  Chem.pot/RT  Activities  Ref.state
CS                5.3763E-03  0.15042 -3.6110E+01  2.0772E-16  SER (default)   
MO                7.2778E-03  0.20362 -1.6284E+01  8.4725E-08  SER (default)   
O                 2.3087E-02  0.64595 -1.3492E+01  1.3824E-06  GAS             

Some data for phases .......................................:
Name                Status Moles      Volume    Form.Units Cmp/FU dGm/RT  Comp:
LIQUID.................. E  3.144E-02  0.00E+00  5.84E-03    5.38  0.00E+00  X:
 O      6.43117E-01  MO     1.85870E-01  CS     1.71013E-01

MOO2.................... E  4.303E-03  0.00E+00  1.43E-03    3.00  0.00E+00  X:
 O      6.66667E-01  MO     3.33333E-01  CS     0.00000E+00


----------------------------------------

[OC parser] Parsed components
  Cs : moles=0.0053763, x=0.15042, mu/RT=-36.11, activity=2.0772e-16, ref=SER (default)
  Mo : moles=0.0072778, x=0.20362, mu/RT=-16.284, activity=8.4725e-08, ref=SER (default)
  O : moles=0.023087, x=0.64595, mu/RT=-13.492, activity=1.3824e-06, ref=GAS

[OC parser] Parsed phases
  Phase condensed : moles=0.004303, volume=0
    Elements
      Cs = 0
      Mo = 0.00143433
      O = 0.00286867
    Species
      MOO2 : moles=0.004303, volume=0
        Cs = 0
        Mo = 0.00143433
        O = 0.00286867
  Phase liquid : moles=0.03144, volume=0
    Elements
      Cs = 0.00537665
      Mo = 0.00584375
      O = 0.0202196
Using current directory.
STOP Au revoir
STOP Au revoir
STOP Au revoir
STOP Au revoir
STOP Au revoir
STOP Au revoir
STOP Au revoir
STOP Au revoir
STOP Au revoir
STOP Au revoir
STOP Au revoir
STOP Au revoir
STOP Au revoir
STOP Au revoir
STOP Au revoir
STOP Au revoir
STOP Au revoir
STOP Au revoir
STOP Au revoir
STOP Au revoir
STOP Au revoir
STOP Au revoir
STOP Au revoir
STOP Au revoir
STOP Au revoir
Note: The following floating-point exceptions are signalling: IEEE_UNDERFLOW_FLAG
STOP Au revoir
STOP Au revoir
STOP Au revoir
STOP Au revoir
STOP Au revoir
STOP Au revoir
STOP Au revoir
STOP Au revoir
STOP Au revoir
STOP Au revoir
STOP Au revoir
STOP Au revoir
STOP Au revoir
STOP Au revoir
STOP Au revoir
STOP Au revoir
STOP Au revoir
STOP Au revoir
STOP Au revoir
STOP Au revoir
STOP Au revoir
STOP Au revoir
STOP Au revoir
STOP Au revoir
STOP Au revoir
STOP Au revoir
STOP Au revoir
STOP Au revoir
STOP Au revoir
STOP Au revoir
STOP Au revoir
STOP Au revoir
STOP Au revoir
STOP Au revoir
STOP Au revoir
STOP Au revoir
STOP Au revoir
STOP Au revoir
STOP Au revoir
STOP Au revoir
STOP Au revoir
STOP Au revoir
STOP Au revoir
STOP Au revoir
STOP Au revoir
STOP Au revoir
STOP Au revoir
STOP Au revoir
STOP Au revoir
STOP Au revoir
STOP Au revoir
STOP Au revoir
STOP Au revoir
STOP Au revoir
STOP Au revoir
STOP Au revoir
STOP Au revoir
STOP Au revoir
STOP Au revoir
STOP Au revoir
STOP Au revoir
STOP Au revoir
STOP Au revoir
STOP Au revoir
STOP Au revoir
STOP Au revoir
STOP Au revoir
STOP Au revoir
STOP Au revoir
STOP Au revoir
STOP Au revoir
STOP Au revoir
STOP Au revoir
STOP Au revoir
STOP Au revoir
STOP Au revoir
STOP Au revoir
STOP Au revoir
STOP Au revoir
STOP Au revoir
STOP Au revoir
STOP Au revoir
STOP Au revoir
STOP Au revoir
STOP Au revoir
STOP Au revoir
STOP Au revoir
STOP Au revoir
STOP Au revoir
STOP Au revoir
STOP Au revoir
STOP Au revoir
STOP Au revoir
STOP Au revoir
STOP Au revoir
STOP Au revoir
STOP Au revoir
STOP Au revoir
STOP Au revoir
STOP Au revoir
STOP Au revoir
STOP Au revoir
STOP Au revoir
STOP Au revoir
STOP Au revoir
STOP Au revoir
STOP Au revoir
STOP Au revoir
STOP Au revoir
STOP Au revoir
STOP Au revoir
STOP Au revoir
STOP Au revoir
STOP Au revoir
STOP Au revoir
STOP Au revoir
STOP Au revoir
STOP Au revoir
STOP Au revoir
STOP Au revoir
STOP Au revoir
STOP Au revoir
STOP Au revoir
STOP Au revoir
STOP Au revoir
STOP Au revoir
STOP Au revoir
STOP Au revoir
STOP Au revoir
STOP Au revoir
STOP Au revoir
STOP Au revoir
STOP Au revoir
STOP Au revoir
STOP Au revoir
STOP Au revoir
STOP Au revoir
STOP Au revoir
STOP Au revoir
STOP Au revoir
STOP Au revoir
STOP Au revoir
STOP Au revoir
STOP Au revoir
STOP Au revoir
STOP Au revoir
STOP Au revoir
STOP Au revoir
STOP Au revoir
STOP Au revoir
STOP Au revoir
STOP Au revoir
STOP Au revoir
STOP Au revoir
STOP Au revoir
STOP Au revoir
STOP Au revoir
STOP Au revoir
STOP Au revoir
STOP Au revoir
STOP Au revoir
STOP Au revoir
STOP Au revoir
STOP Au revoir
STOP Au revoir
STOP Au revoir
STOP Au revoir
STOP Au revoir
STOP Au revoir
STOP Au revoir
STOP Au revoir
STOP Au revoir
STOP Au revoir
STOP Au revoir
STOP Au revoir
STOP Au revoir
STOP Au revoir
STOP Au revoir
STOP Au revoir
STOP Au revoir
STOP Au revoir
STOP Au revoir
STOP Au revoir
STOP Au revoir
STOP Au revoir
STOP Au revoir
STOP Au revoir
STOP Au revoir
STOP Au revoir
STOP Au revoir
STOP Au revoir
STOP Au revoir
STOP Au revoir
STOP Au revoir
STOP Au revoir
STOP Au revoir
STOP Au revoir
STOP Au revoir
STOP Au revoir
STOP Au revoir
STOP Au revoir
STOP Au revoir
STOP Au revoir
STOP Au revoir
STOP Au revoir
STOP Au revoir
STOP Au revoir
STOP Au revoir
STOP Au revoir
STOP Au revoir
STOP Au revoir
STOP Au revoir
STOP Au revoir
STOP Au revoir
STOP Au revoir
STOP Au revoir
STOP Au revoir
STOP Au revoir
STOP Au revoir
STOP Au revoir
STOP Au revoir
STOP Au revoir
STOP Au revoir
STOP Au revoir
