Use ./sciantix.x ../input_path/ in the working directory
OpenCalphad attempt for 'matrix' with WARM-START

[OC input] ./OCinput_matrix.OCM
----------------------------------------
@$ Initialize variables:
r t /home/ecappellari/transparant/opencalphad/data/O-Pu-UPaper o pu u

set ref o gas * 100000

set c t=1428
set c p=200000
set c n(o)=0.663866
set c n(pu)=0.0963509
set c n(u)=0.239784
c e
c w

save u ./OCoutput_matrix Y

l /out=./OCoutput_matrix.DAT r 1

fin
----------------------------------------

3A unfished preparations for XTDB


Open Calphad (OC) software version   6.106 , linked 2026-04-16
with command line monitor version  73

This program is available with a GNU General Public License.
either version 2 of the License, or any later version.
It includes the General Thermodynamic Package, version GTP-3.31,
Hillert's equilibrium calculation algorithm version HMS-3.0 ,
step/map/plot software version SMP-2.30 using GNUPLOT 5.2 graphics.
Numerical routines are extracted from LAPACK and BLAS and
the assessment procedure uses LMDIF from ANL.

Linked with OpenMp for parallel execution
 Warning, no environment variable OCHOME and no help file
 Working directory is: /home/ecappellari/transparant/sciantix-official/regression/test_JOG_MOX/point_07_r_2p0mm
--->OC6:--->OC6: 3E Database file extention is: ".tdb"

This database has information to users, please read carefully
Database modified by Pauline Fouquet-Metivier et al, Calphad (2022)
Only for the liquid phase of Pu-O and U-Pu-O systems

 ELEMENT /-   ELECTRON_GAS              0.0000E+00  0.0000E+00  0.0000E+00!

Database has  5 elements: O  PU U  AR N 
Give the elements to select, finish with empty line
Selected  3 elements: O  PU U 
Select elements /no more/:Selected  3 elements: O  PU U 
3E reading database file: /home/ecappellari/transparant/opencalphad/data/O-Pu-UPaper.TDB
 3B insering interaction before existing F

Out of   115 model parameters   108 have been entered


There are    17 bibliographic references
REF161          '*** Not set by database or user'
REF178          '*** Not set by database or user'
REF175          '*** Not set by database or user'
REF176          '*** Not set by database or user'
REF177          '*** Not set by database or user'
REF203          'O1PU1<G> T.C.R.A.S. Class: 6, from SSUB, id to Tbase'
REF204          'O2PU1<G> T.C.R.A.S. Class: 7 PLUTONIUM DIOXIDE <GAS>, from 
                 SSUB, id to Tbase'
REF209          'O1U1<G> T.C.R.A.S Class: 6 Data provided by T.C.R.A.S. in 
                 2000, from SSUB, different of Tbase'
REF210          'O2U1<G> T.C.R.A.S. Class: 6 URANIUM DIOXIDE <GAS>, from 
                 SSUB, slightly different of Tbase'
REF211          'O3U1<G> T.C.R.A.S Class: 6 Data provided by T.C.R.A.S. in 
                 2000, from SSUB, different of Tbase'
REF10           'A T Dinsdale, SGTE Data for Pure Elements, Calphad 15(1991)4 
                 p 317-425; also in NPL Report DMA(A)195 Rev. August 1990'
FOUQ            'P. Fouquet-Metivier et al, Calphad (2022)'
REF412          'C. Gueneau, N. Dupin, B. Sundman, C. Martial, J.-C. Dumas, 
                 S. Gosse, S. Chatain, F. De Bruycker, D. Manara, R.J.M. 
                 Konings, J. Nucl. Mat. 419 (1-3), 145-167 (2011); C-O-Pu-U'
REF37           'M. Kurata, Calphad, 23 (3-4), 305-337 1999'
REF115          '*** Not set by database or user'
REF92           'N. Dupin, Contrat CEA 4000294936/P5B73 Np-Pu Fuelbase, 
                 february REF115'
REF137          '*** Not set by database or user'

--->OC6:--->OC6:--->OC6:--->OC6:--->OC6:--->OC6:--->OC6:--->OC6:3Y Removed  2 gridpoints by merging
Gridmin:    7483 points   1.58E-02 s and      14 clockcycles, T= 1428.00
 3Y leaving global_gridmin
Equilibrium result:  18 its,  1.6970E-02 s,     17 cc, GS= -4.2811994E+05 J/mol
--->OC6:Equilibrium result:   9 its,  5.6500E-04 s,      0 cc, GS= -4.2811994E+05 J/mol
3Y Testing if any gridpoint is below the calculated equilibrium
--->OC6:--->OC6:3E allocating workspace:     122160          (   2160,   10000,    2)
 3E saving            3  symbols as texts
 3E used        12112  words out of       122160  for storing static data
 ceqrecsize not implemented          25
 3E Saving an equilibrium record requires     2613       0 words
 3E not storing unused equilibria from:            2
 3E Saving assessment record
 3E No experimental equilibrium range set
 3E allocating assessment head record          48
 3E no coefficients allocated
 3E no work array (assrec%wopt) allocated
Used    14813 words out of   122160,  12.13% for unformatted memory save
Written workspace      59252 bytes unformatted on ./OCoutput_matrix.OCU
--->OC6:--->OC6:Output on file: ./OCoutput_matrix.DAT
Output unit reset to screen:    6
--->OC6:--->OC6:
[OC output] ./OCoutput_matrix.DAT
----------------------------------------

%%%%%%%%%% OC output written: 2026-04-19  21h33

Output for equilibrium:   1, DEFAULT_EQUILIBRIUM          2026.04.19
Conditions .................................................:
  1:T=1428, 2:P=200000, 3:N(O)=0.663866, 4:N(PU)=.0963509, 5:N(U)=0.239784
 Degrees of freedom are   0

Some global data, reference state SER ......................:
T=   1428.00 K (  1154.85 C), P=  2.0000E+05 Pa, V=  0.0000E+00 m3
N=   1.0000E+00 moles, B=   9.1212E+01 g, RT=   1.1873E+04 J/mol
G= -4.28120E+05 J, G/N=-4.2812E+05 J/mol, H=-3.2876E+05 J, S= 6.958E+01 J/K

Some data for components ...................................:
Component name    Moles      Mole-fr  Chem.pot/RT  Activities  Ref.state
O                 6.6387E-01  0.66387 -2.2433E+01  1.8094E-10  GAS             
PU                9.6351E-02  0.09635 -3.6030E+01  2.2514E-16  SER (default)   
U                 2.3978E-01  0.23978 -3.6511E+01  1.3916E-16  SER (default)   

Some data for phases .......................................:
Name                Status Moles      Volume    Form.Units Cmp/FU dGm/RT  Comp:
C1_MO2.................. E  1.000E+00  0.00E+00  3.36E-01    2.97  0.00E+00  X:
 O      6.63865E-01  U      2.39784E-01  PU     9.63508E-02


----------------------------------------

[OC parser] Parsed components
  O : moles=0.66387, x=0.66387, mu/RT=-22.433, activity=1.8094e-10, ref=GAS
  Pu : moles=0.096351, x=0.09635, mu/RT=-36.03, activity=2.2514e-16, ref=SER (default)
  U : moles=0.23978, x=0.23978, mu/RT=-36.511, activity=1.3916e-16, ref=SER (default)

[OC parser] Parsed phases
  Phase condensed : moles=1, volume=0
    Elements
      O = 0.663865
      Pu = 0.0963508
      U = 0.239784
    Species
      C1_MO2 : moles=1, volume=0
        O = 0.663865
        Pu = 0.0963508
        U = 0.239784
OpenCalphad attempt for 'matrix' with WARM-START

[OC input] ./OCinput_matrix.OCM
----------------------------------------
r u ./OCoutput_matrix.OCU

set ref o gas * 100000

set c t=1428
set c p=268000
set c n(o)=0.664146
set c n(pu)=0.0959685
set c n(u)=0.239885
c e
c w

save u ./OCoutput_matrix Y

l /out=./OCoutput_matrix.DAT r 1

fin
----------------------------------------

3A unfished preparations for XTDB


Open Calphad (OC) software version   6.106 , linked 2026-04-16
with command line monitor version  73

This program is available with a GNU General Public License.
either version 2 of the License, or any later version.
It includes the General Thermodynamic Package, version GTP-3.31,
Hillert's equilibrium calculation algorithm version HMS-3.0 ,
step/map/plot software version SMP-2.30 using GNUPLOT 5.2 graphics.
Numerical routines are extracted from LAPACK and BLAS and
the assessment procedure uses LMDIF from ANL.

Linked with OpenMp for parallel execution
 Warning, no environment variable OCHOME and no help file
 Working directory is: /home/ecappellari/transparant/sciantix-official/regression/test_JOG_MOX/point_07_r_2p0mm
--->OC6:
Read unformatted file: This is a save file for OC version:     OCF-3.20
Generated:  2026.04.19 21h33

 3E reading unformatted:        14778           0           0
3E Addition type   1, Inden-Hillert magn model for BCC_A2
3E Addition type   1, Inden-Hillert magn model for FCC_A1
 3E no experimental data
 3E no coefficient values saved
 3E Read assessment record
 No coefficients allocated
--->OC6:--->OC6:--->OC6:--->OC6:--->OC6:--->OC6:--->OC6:--->OC6:--->OC6:3Y Removed  2 gridpoints by merging
Gridmin:    7483 points   2.42E-02 s and      21 clockcycles, T= 1428.00
 3Y leaving global_gridmin
Equilibrium result:  18 its,  2.6342E-02 s,     26 cc, GS= -4.2811850E+05 J/mol
--->OC6:Equilibrium result:   9 its,  8.3700E-04 s,      0 cc, GS= -4.2811850E+05 J/mol
3Y Testing if any gridpoint is below the calculated equilibrium
--->OC6:--->OC6:
Overwriting previous results on ./OCoutput_matrix.OCU
3E allocating workspace:     122160          (   2160,   10000,    2)
 3E saving            3  symbols as texts
 3E used        12112  words out of       122160  for storing static data
 ceqrecsize not implemented          25
 3E Saving an equilibrium record requires     2613       0 words
 3E not storing unused equilibria from:            2
 3E Saving assessment record
 3E No experimental equilibrium range set
 3E allocating assessment head record          48
 3E no coefficients allocated
 3E no work array (assrec%wopt) allocated
Used    14813 words out of   122160,  12.13% for unformatted memory save
Written workspace      59252 bytes unformatted on ./OCoutput_matrix.OCU
--->OC6:--->OC6:Output on file: ./OCoutput_matrix.DAT
Output unit reset to screen:    6
--->OC6:--->OC6:
[OC output] ./OCoutput_matrix.DAT
----------------------------------------

%%%%%%%%%% OC output written: 2026-04-19  21h33

Output for equilibrium:   1, DEFAULT_EQUILIBRIUM          2026.04.19
Conditions .................................................:
  1:T=1428, 2:P=268000, 3:N(O)=0.664146, 4:N(PU)=.0959685, 5:N(U)=0.239885
 Degrees of freedom are   0

Some global data, reference state SER ......................:
T=   1428.00 K (  1154.85 C), P=  2.6800E+05 Pa, V=  0.0000E+00 m3
N=   1.0000E+00 moles, B=   9.1148E+01 g, RT=   1.1873E+04 J/mol
G= -4.28118E+05 J, G/N=-4.2812E+05 J/mol, H=-3.2885E+05 J, S= 6.951E+01 J/K

Some data for components ...................................:
Component name    Moles      Mole-fr  Chem.pot/RT  Activities  Ref.state
O                 6.6415E-01  0.66415 -2.2374E+01  1.9187E-10  GAS             
PU                9.5969E-02  0.09597 -3.6429E+01  1.5111E-16  SER (default)   
U                 2.3988E-01  0.23989 -3.6919E+01  9.2571E-17  SER (default)   

Some data for phases .......................................:
Name                Status Moles      Volume    Form.Units Cmp/FU dGm/RT  Comp:
C1_MO2.................. E  1.000E+00  0.00E+00  3.36E-01    2.98  0.00E+00  X:
 O      6.64146E-01  U      2.39885E-01  PU     9.59685E-02


----------------------------------------

[OC parser] Parsed components
  O : moles=0.66415, x=0.66415, mu/RT=-22.374, activity=1.9187e-10, ref=GAS
  Pu : moles=0.095969, x=0.09597, mu/RT=-36.429, activity=1.5111e-16, ref=SER (default)
  U : moles=0.23988, x=0.23989, mu/RT=-36.919, activity=9.2571e-17, ref=SER (default)

[OC parser] Parsed phases
  Phase condensed : moles=1, volume=0
    Elements
      O = 0.664146
      Pu = 0.0959685
      U = 0.239885
    Species
      C1_MO2 : moles=1, volume=0
        O = 0.664146
        Pu = 0.0959685
        U = 0.239885
OpenCalphad attempt for 'matrix' with WARM-START

[OC input] ./OCinput_matrix.OCM
----------------------------------------
r u ./OCoutput_matrix.OCU

set ref o gas * 100000

set c t=1428
set c p=336000
set c n(o)=0.664428
set c n(pu)=0.0955858
set c n(u)=0.239987
c e
c w

save u ./OCoutput_matrix Y

l /out=./OCoutput_matrix.DAT r 1

fin
----------------------------------------

3A unfished preparations for XTDB


Open Calphad (OC) software version   6.106 , linked 2026-04-16
with command line monitor version  73

This program is available with a GNU General Public License.
either version 2 of the License, or any later version.
It includes the General Thermodynamic Package, version GTP-3.31,
Hillert's equilibrium calculation algorithm version HMS-3.0 ,
step/map/plot software version SMP-2.30 using GNUPLOT 5.2 graphics.
Numerical routines are extracted from LAPACK and BLAS and
the assessment procedure uses LMDIF from ANL.

Linked with OpenMp for parallel execution
 Warning, no environment variable OCHOME and no help file
 Working directory is: /home/ecappellari/transparant/sciantix-official/regression/test_JOG_MOX/point_07_r_2p0mm
--->OC6:
Read unformatted file: This is a save file for OC version:     OCF-3.20
Generated:  2026.04.19 21h33

 3E reading unformatted:        14778           0           0
3E Addition type   1, Inden-Hillert magn model for BCC_A2
3E Addition type   1, Inden-Hillert magn model for FCC_A1
 3E no experimental data
 3E no coefficient values saved
 3E Read assessment record
 No coefficients allocated
--->OC6:--->OC6:--->OC6:--->OC6:--->OC6:--->OC6:--->OC6:--->OC6:--->OC6:3Y Removed  1 gridpoints by merging
 3Y Composition set(s) created:            1
Gridmin:    7483 points   1.54E-02 s and      14 clockcycles, T= 1428.00
 3Y leaving global_gridmin
Phase change iteration:     4  -C1_MO2_AUTO#2
Equilibrium result:  19 its,  1.6825E-02 s,     17 cc, GS= -4.2811614E+05 J/mol
--->OC6:Equilibrium result:   9 its,  6.0500E-04 s,      1 cc, GS= -4.2811611E+05 J/mol
3Y Testing if any gridpoint is below the calculated equilibrium
--->OC6:--->OC6:
Overwriting previous results on ./OCoutput_matrix.OCU
3E allocating workspace:     122160          (   2160,   10000,    2)
 3E saving            3  symbols as texts
 3E used        12117  words out of       122160  for storing static data
 ceqrecsize not implemented          26
 3E Saving an equilibrium record requires     2854       0 words
 3E not storing unused equilibria from:            2
 3E Saving assessment record
 3E No experimental equilibrium range set
 3E allocating assessment head record          48
 3E no coefficients allocated
 3E no work array (assrec%wopt) allocated
Used    15059 words out of   122160,  12.33% for unformatted memory save
Written workspace      60236 bytes unformatted on ./OCoutput_matrix.OCU
--->OC6:--->OC6:Output on file: ./OCoutput_matrix.DAT
Output unit reset to screen:    6
--->OC6:--->OC6:
[OC output] ./OCoutput_matrix.DAT
----------------------------------------

%%%%%%%%%% OC output written: 2026-04-19  21h33

Output for equilibrium:   1, DEFAULT_EQUILIBRIUM          2026.04.19
Conditions .................................................:
  1:T=1428, 2:P=336000, 3:N(O)=0.664428, 4:N(PU)=.0955858, 5:N(U)=0.239987
 Degrees of freedom are   0

Some global data, reference state SER ......................:
T=   1428.00 K (  1154.85 C), P=  3.3600E+05 Pa, V=  0.0000E+00 m3
N=   1.0000E+00 moles, B=   9.1083E+01 g, RT=   1.1873E+04 J/mol
G= -4.28116E+05 J, G/N=-4.2812E+05 J/mol, H=-3.2895E+05 J, S= 6.945E+01 J/K

Some data for components ...................................:
Component name    Moles      Mole-fr  Chem.pot/RT  Activities  Ref.state
O                 6.6443E-01  0.66443 -2.2264E+01  2.1421E-10  GAS             
PU                9.5586E-02  0.09559 -3.6863E+01  9.7814E-17  SER (default)   
U                 2.3999E-01  0.23999 -3.7363E+01  5.9365E-17  SER (default)   

Some data for phases .......................................:
Name                Status Moles      Volume    Form.Units Cmp/FU dGm/RT  Comp:
C1_MO2#1................ E  1.000E+00  0.00E+00  3.36E-01    2.98  0.00E+00  X:
 O      6.64427E-01  U      2.39987E-01  PU     9.55857E-02


----------------------------------------

[OC parser] Parsed components
  O : moles=0.66443, x=0.66443, mu/RT=-22.264, activity=2.1421e-10, ref=GAS
  Pu : moles=0.095586, x=0.09559, mu/RT=-36.863, activity=9.7814e-17, ref=SER (default)
  U : moles=0.23999, x=0.23999, mu/RT=-37.363, activity=5.9365e-17, ref=SER (default)

[OC parser] Parsed phases
  Phase condensed : moles=1, volume=0
    Elements
      O = 0.664427
      Pu = 0.0955857
      U = 0.239987
    Species
      C1_MO2 : moles=1, volume=0
        O = 0.664427
        Pu = 0.0955857
        U = 0.239987
OpenCalphad attempt for 'at grain boundary' with WARM-START

[OC input] ./OCinput_fission_products.OCM
----------------------------------------
@$ Initialize variables:
r t /home/ecappellari/transparant/opencalphad/data/CsMoO_TAFID_2021_Anna cs mo o

set ref o gas * 100000

set c t=1428
set c p=336000
set c n(cs)=2.94334e-05
set c n(mo)=4.43602e-05
set c n(o)=0.999926
c e
set c n(o)=none
set c mu(o)=-528673

c w

save u ./OCoutput_fission_products Y

l /out=./OCoutput_fission_products.DAT r 1

fin
----------------------------------------

3A unfished preparations for XTDB


Open Calphad (OC) software version   6.106 , linked 2026-04-16
with command line monitor version  73

This program is available with a GNU General Public License.
either version 2 of the License, or any later version.
It includes the General Thermodynamic Package, version GTP-3.31,
Hillert's equilibrium calculation algorithm version HMS-3.0 ,
step/map/plot software version SMP-2.30 using GNUPLOT 5.2 graphics.
Numerical routines are extracted from LAPACK and BLAS and
the assessment procedure uses LMDIF from ANL.

Linked with OpenMp for parallel execution
 Warning, no environment variable OCHOME and no help file
 Working directory is: /home/ecappellari/transparant/sciantix-official/regression/test_JOG_MOX/point_07_r_2p0mm
--->OC6:--->OC6: 3E Database file extention is: ".tdb"
Database has  3 elements: CS MO O 
Give the elements to select, finish with empty line
Selected  3 elements: CS MO O 
Select elements /no more/:Selected  3 elements: CS MO O 
3E reading database file: /home/ecappellari/transparant/opencalphad/data/CsMoO_TAFID_2021_Anna.TDB

Out of    82 model parameters    82 have been entered


There are     1 bibliographic references
REF0            '*** Not set by database or user'

--->OC6:--->OC6:--->OC6:--->OC6:--->OC6:--->OC6:--->OC6:--->OC6:Gridmin:    9683 points   2.91E-02 s and      30 clockcycles, T= 1428.00
 3Y leaving global_gridmin
Phase change iteration:     4  -LIQUID
Phase change iteration:     8  +CS2MOO4_S2
Phase change iteration:    12  -CS2MO3O10
Phase change iteration:    16  -CS2MOO4_S2
Equilibrium result:  33 its,  3.2548E-02 s,     34 cc, GS= -1.5682370E+05 J/mol
--->OC6:--->OC6:--->OC6:--->OC6:Phase change iteration:     4  +HCP_A3
Equilibrium result:  24 its,  2.0200E-03 s,      2 cc, GS= -8.0134498E+00 J/mol
3Y Testing if any gridpoint is below the calculated equilibrium
 3Y Equilibrium wrong, gridtest found BCC_A2                  
 3Y recalculate with:           38           2          39
 MM recalculating with this phase as stable 2:           38
MM Calculate with activity condition
Phase change iteration:     4  -BCC_A2_CHKD#2
Phase change iteration:     5  +BCC_A2_CHKD#2
Phase change iteration:     8  +BCC_A2#1
Phase change iteration:     9  +BCC_A2#1
Phase change iteration:    10  +BCC_A2#1
MM Too many stable phases at iter  10, phase  26 replaced by   3, T=  1428.00
Equilibrium result:  15 its,  2.5114E-02 s,     26 cc, GS= -8.4848424E+00 J/mol
3Y Testing if any gridpoint is below the calculated equilibrium
--->OC6:--->OC6:3E allocating workspace:     123330          (   3330,   10000,    2)
 3E saving            3  symbols as texts
 3E used        12286  words out of       123330  for storing static data
 ceqrecsize not implemented          39
 3E Saving an equilibrium record requires     4093       0 words
 3E not storing unused equilibria from:            2
 3E Saving assessment record
 3E No experimental equilibrium range set
 3E allocating assessment head record          48
 3E no coefficients allocated
 3E no work array (assrec%wopt) allocated
Used    16467 words out of   123330,  13.35% for unformatted memory save
Written workspace      65868 bytes unformatted on ./OCoutput_fission_products.OCU
--->OC6:--->OC6:Output on file: ./OCoutput_fission_products.DAT
Output unit reset to screen:    6
--->OC6:--->OC6:
[OC output] ./OCoutput_fission_products.DAT
----------------------------------------

%%%%%%%%%% OC output written: 2026-04-19  21h33

Output for equilibrium:   1, DEFAULT_EQUILIBRIUM          2026.04.19
Conditions .................................................:
  1:T=1428, 2:P=336000, 3:N(CS)=2.94334E-05, 4:N(MO)=4.43602E-05, 5:MU(O)=
    -528673
 Degrees of freedom are   0

Some global data, reference state SER ......................:
T=   1428.00 K (  1154.85 C), P=  3.3600E+05 Pa, V=  1.0071E-06 m3
N=   7.3794E-05 moles, B=   8.1679E-03 g, RT=   1.1873E+04 J/mol
G= -8.48484E+00 J, G/N=-1.1498E+05 J/mol, H= 4.2899E+00 J, S= 8.946E-03 J/K

Some data for components ...................................:
Component name    Moles      Mole-fr  Chem.pot/RT  Activities  Ref.state
CS                2.9433E-05  0.39886 -1.5434E+01  1.9825E-07  SER (default)   
MO                4.4360E-05  0.60114 -5.8692E+00  2.8252E-03  SER (default)   
O                 1.4672E-16  0.00000 -4.4527E+01  4.5943E-20  GAS             

Some data for phases .......................................:
Name                Status Moles      Volume    Form.Units Cmp/FU dGm/RT  Comp:
GAS..................... E  2.937E-05  1.01E-06  2.85E-05    1.03  0.00E+00  X:
 CS     1.00000E+00  O      2.70177E-15  MO     1.59629E-17
Constitution: There are    18 constituents:
 CS           9.69612E-01  O            3.63884E-26  MOO2         1.00000E-30
 CS2          3.03885E-02  MOO          1.09743E-27  MOO3         1.00000E-30
 CS2O         2.78376E-15  MO3O9        1.00000E-30  CS2O2        1.00000E-30
 MO           1.64480E-17  MO4O12       1.00000E-30  O2           1.00000E-30
 CSO          1.07866E-19  MO5O15       1.00000E-30  O3           1.00000E-30
 MO2          3.38962E-25  MO2O6        1.00000E-30  CS2MOO4      1.00000E-30

BCC_A2#1................ E  4.443E-05  0.00E+00  4.44E-05    1.00  0.00E+00  X:
 MO     9.98481E-01  CS     1.51894E-03  O      3.30066E-12


----------------------------------------

[OC parser] Parsed components
  Cs : moles=2.9433e-05, x=0.39886, mu/RT=-15.434, activity=1.9825e-07, ref=SER (default)
  Mo : moles=4.436e-05, x=0.60114, mu/RT=-5.8692, activity=0.0028252, ref=SER (default)
  O : moles=1.4672e-16, x=0, mu/RT=-44.527, activity=4.5943e-20, ref=GAS

[OC parser] Parsed phases
  Phase condensed : moles=4.443e-05, volume=0
    Elements
      Cs = 6.74865e-08
      Mo = 4.43625e-05
      O = 1.46648e-16
    Species
      BCC_A2 : moles=4.443e-05, volume=0
        Cs = 6.74865e-08
        Mo = 4.43625e-05
        O = 1.46648e-16
  Phase gas : moles=2.937e-05, volume=1.01e-06
    Elements
      Cs = 2.937e-05
      Mo = 4.6883e-22
      O = 7.9351e-20
    Species
      CS : moles=2.84775e-05, volume=0
      CS2 : moles=8.9251e-07, volume=0
      CS2MOO4 : moles=2.937e-35, volume=0
      CS2O : moles=8.1759e-20, volume=0
      CS2O2 : moles=2.937e-35, volume=0
      CSO : moles=3.16802e-24, volume=0
      MO : moles=4.83078e-22, volume=0
      MO2 : moles=9.95531e-30, volume=0
      MO2O6 : moles=2.937e-35, volume=0
      MO3O9 : moles=2.937e-35, volume=0
      MO4O12 : moles=2.937e-35, volume=0
      MO5O15 : moles=2.937e-35, volume=0
      MOO : moles=3.22315e-32, volume=0
      MOO2 : moles=2.937e-35, volume=0
      MOO3 : moles=2.937e-35, volume=0
      O : moles=1.06873e-30, volume=0
      O2 : moles=2.937e-35, volume=0
      O3 : moles=2.937e-35, volume=0
      are : moles=0.00052866, volume=0
OpenCalphad attempt for 'matrix' with WARM-START

[OC input] ./OCinput_matrix.OCM
----------------------------------------
r u ./OCoutput_matrix.OCU

set ref o gas * 100000

set c t=1428
set c p=404000
set c n(o)=0.664709
set c n(pu)=0.0952027
set c n(u)=0.240088
c e
c w

save u ./OCoutput_matrix Y

l /out=./OCoutput_matrix.DAT r 1

fin
----------------------------------------

3A unfished preparations for XTDB


Open Calphad (OC) software version   6.106 , linked 2026-04-16
with command line monitor version  73

This program is available with a GNU General Public License.
either version 2 of the License, or any later version.
It includes the General Thermodynamic Package, version GTP-3.31,
Hillert's equilibrium calculation algorithm version HMS-3.0 ,
step/map/plot software version SMP-2.30 using GNUPLOT 5.2 graphics.
Numerical routines are extracted from LAPACK and BLAS and
the assessment procedure uses LMDIF from ANL.

Linked with OpenMp for parallel execution
 Warning, no environment variable OCHOME and no help file
 Working directory is: /home/ecappellari/transparant/sciantix-official/regression/test_JOG_MOX/point_07_r_2p0mm
--->OC6:
Read unformatted file: This is a save file for OC version:     OCF-3.20
Generated:  2026.04.19 21h33

 3E reading unformatted:        15024           0           0
3E Addition type   1, Inden-Hillert magn model for BCC_A2
3E Addition type   1, Inden-Hillert magn model for FCC_A1
 3E no experimental data
 3E no coefficient values saved
 3E Read assessment record
 No coefficients allocated
--->OC6:--->OC6:--->OC6:--->OC6:--->OC6:--->OC6:--->OC6:--->OC6:--->OC6:3Y Removed  1 gridpoints by merging
Gridmin:    7483 points   1.59E-02 s and      15 clockcycles, T= 1428.00
 3Y leaving global_gridmin
Phase change iteration:     4  -C1_MO2_AUTO#2
Equilibrium result:  19 its,  1.7557E-02 s,     18 cc, GS= -4.2811042E+05 J/mol
--->OC6:Equilibrium result:   9 its,  6.4800E-04 s,      1 cc, GS= -4.2811040E+05 J/mol
3Y Testing if any gridpoint is below the calculated equilibrium
--->OC6:--->OC6:
Overwriting previous results on ./OCoutput_matrix.OCU
3E allocating workspace:     122160          (   2160,   10000,    2)
 3E saving            3  symbols as texts
 3E used        12117  words out of       122160  for storing static data
 ceqrecsize not implemented          26
 3E Saving an equilibrium record requires     2854       0 words
 3E not storing unused equilibria from:            2
 3E Saving assessment record
 3E No experimental equilibrium range set
 3E allocating assessment head record          48
 3E no coefficients allocated
 3E no work array (assrec%wopt) allocated
Used    15059 words out of   122160,  12.33% for unformatted memory save
Written workspace      60236 bytes unformatted on ./OCoutput_matrix.OCU
--->OC6:--->OC6:Output on file: ./OCoutput_matrix.DAT
Output unit reset to screen:    6
--->OC6:--->OC6:
[OC output] ./OCoutput_matrix.DAT
----------------------------------------

%%%%%%%%%% OC output written: 2026-04-19  21h33

Output for equilibrium:   1, DEFAULT_EQUILIBRIUM          2026.04.19
Conditions .................................................:
  1:T=1428, 2:P=404000, 3:N(O)=0.664709, 4:N(PU)=.0952027, 5:N(U)=0.240088
 Degrees of freedom are   0

Some global data, reference state SER ......................:
T=   1428.00 K (  1154.85 C), P=  4.0400E+05 Pa, V=  0.0000E+00 m3
N=   1.0000E+00 moles, B=   9.1018E+01 g, RT=   1.1873E+04 J/mol
G= -4.28110E+05 J, G/N=-4.2811E+05 J/mol, H=-3.2904E+05 J, S= 6.938E+01 J/K

Some data for components ...................................:
Component name    Moles      Mole-fr  Chem.pot/RT  Activities  Ref.state
O                 6.6471E-01  0.66471 -2.2111E+01  2.4963E-10  GAS             
PU                9.5203E-02  0.09520 -3.7342E+01  6.0608E-17  SER (default)   
U                 2.4009E-01  0.24009 -3.7851E+01  3.6421E-17  SER (default)   

Some data for phases .......................................:
Name                Status Moles      Volume    Form.Units Cmp/FU dGm/RT  Comp:
C1_MO2#1................ E  1.000E+00  0.00E+00  3.35E-01    2.98  0.00E+00  X:
 O      6.64709E-01  U      2.40088E-01  PU     9.52027E-02


----------------------------------------

[OC parser] Parsed components
  O : moles=0.66471, x=0.66471, mu/RT=-22.111, activity=2.4963e-10, ref=GAS
  Pu : moles=0.095203, x=0.0952, mu/RT=-37.342, activity=6.0608e-17, ref=SER (default)
  U : moles=0.24009, x=0.24009, mu/RT=-37.851, activity=3.6421e-17, ref=SER (default)

[OC parser] Parsed phases
  Phase condensed : moles=1, volume=0
    Elements
      O = 0.664709
      Pu = 0.0952027
      U = 0.240088
    Species
      C1_MO2 : moles=1, volume=0
        O = 0.664709
        Pu = 0.0952027
        U = 0.240088
OpenCalphad attempt for 'at grain boundary' with WARM-START

[OC input] ./OCinput_fission_products.OCM
----------------------------------------
r u ./OCoutput_fission_products.OCU

set ref o gas * 100000

set c t=1428
set c p=404000
set c n(cs)=4.91866e-05
set c n(mo)=7.69837e-05
set c n(o)=0.999874
c e
set c n(o)=none
set c mu(o)=-525040

c w

save u ./OCoutput_fission_products Y

l /out=./OCoutput_fission_products.DAT r 1

fin
----------------------------------------

3A unfished preparations for XTDB


Open Calphad (OC) software version   6.106 , linked 2026-04-16
with command line monitor version  73

This program is available with a GNU General Public License.
either version 2 of the License, or any later version.
It includes the General Thermodynamic Package, version GTP-3.31,
Hillert's equilibrium calculation algorithm version HMS-3.0 ,
step/map/plot software version SMP-2.30 using GNUPLOT 5.2 graphics.
Numerical routines are extracted from LAPACK and BLAS and
the assessment procedure uses LMDIF from ANL.

Linked with OpenMp for parallel execution
 Warning, no environment variable OCHOME and no help file
 Working directory is: /home/ecappellari/transparant/sciantix-official/regression/test_JOG_MOX/point_07_r_2p0mm
--->OC6:
Read unformatted file: This is a save file for OC version:     OCF-3.20
Generated:  2026.04.19 21h33

 3E reading unformatted:        16432           0           0
3E Addition type   1, Inden-Hillert magn model for BCC_A2
3E Addition type   1, Inden-Hillert magn model for FCC_A1
3E Addition type   1, Inden-Hillert magn model for HCP_A3
 3E no experimental data
 3E no coefficient values saved
 3E Read assessment record
 No coefficients allocated
--->OC6:--->OC6:--->OC6:--->OC6:--->OC6:--->OC6:--->OC6:--->OC6:--->OC6:
Error codes:   4144     0    50
Message: Degrees of freedom not zero

--->OC6:--->OC6:--->OC6:--->OC6:Equilibrium result:  10 its,  8.0300E-04 s,      1 cc, GS= -1.4274035E+01 J/mol
3Y Testing if any gridpoint is below the calculated equilibrium
--->OC6:--->OC6:
Overwriting previous results on ./OCoutput_fission_products.OCU
3E allocating workspace:     123330          (   3330,   10000,    2)
 3E saving            3  symbols as texts
 3E used        12286  words out of       123330  for storing static data
 ceqrecsize not implemented          39
 3E Saving an equilibrium record requires     4093       0 words
 3E not storing unused equilibria from:            2
 3E Saving assessment record
 3E No experimental equilibrium range set
 3E allocating assessment head record          48
 3E no coefficients allocated
 3E no work array (assrec%wopt) allocated
Used    16467 words out of   123330,  13.35% for unformatted memory save
Written workspace      65868 bytes unformatted on ./OCoutput_fission_products.OCU
--->OC6:--->OC6:Output on file: ./OCoutput_fission_products.DAT
Output unit reset to screen:    6
--->OC6:--->OC6:
[OC output] ./OCoutput_fission_products.DAT
----------------------------------------

%%%%%%%%%% OC output written: 2026-04-19  21h33

Output for equilibrium:   1, DEFAULT_EQUILIBRIUM          2026.04.19
Conditions .................................................:
  1:T=1428, 2:P=404000, 3:N(CS)=4.91866E-05, 4:N(MO)=7.69837E-05, 5:MU(O)=
    -525040
 Degrees of freedom are   0

Some global data, reference state SER ......................:
T=   1428.00 K (  1154.85 C), P=  4.0400E+05 Pa, V=  1.3912E-06 m3
N=   1.2617E-04 moles, B=   1.3923E-02 g, RT=   1.1873E+04 J/mol
G= -1.42740E+01 J, G/N=-1.1313E+05 J/mol, H= 7.2450E+00 J, S= 1.507E-02 J/K

Some data for components ...................................:
Component name    Moles      Mole-fr  Chem.pot/RT  Activities  Ref.state
CS                4.9187E-05  0.38984 -1.5255E+01  2.3696E-07  SER (default)   
MO                7.6984E-05  0.61016 -5.8695E+00  2.8243E-03  SER (default)   
O                 2.5479E-16  0.00000 -4.4221E+01  6.2389E-20  GAS             

Some data for phases .......................................:
Name                Status Moles      Volume    Form.Units Cmp/FU dGm/RT  Comp:
GAS..................... E  4.905E-05  1.39E-06  4.73E-05    1.04  0.00E+00  X:
 CS     1.00000E+00  O      4.75393E-15  MO     1.31989E-17
Constitution: There are    18 constituents:
 CS           9.63891E-01  O            4.50640E-26  MOO2         1.00000E-30
 CS2          3.61087E-02  MOO          1.35867E-27  MOO3         1.00000E-30
 CS2O         4.92542E-15  MO3O9        1.00000E-30  CS2O2        1.00000E-30
 MO           1.36755E-17  MO4O12       1.00000E-30  O2           1.00000E-30
 CSO          1.59670E-19  MO5O15       1.00000E-30  O3           1.00000E-30
 MO2          2.81741E-25  MO2O6        1.00000E-30  CS2MOO4      1.00000E-30

BCC_A2#1................ E  7.712E-05  0.00E+00  7.71E-05    1.00  0.00E+00  X:
 MO     9.98180E-01  CS     1.82017E-03  O      3.30066E-12


----------------------------------------

[OC parser] Parsed components
  Cs : moles=4.9187e-05, x=0.38984, mu/RT=-15.255, activity=2.3696e-07, ref=SER (default)
  Mo : moles=7.6984e-05, x=0.61016, mu/RT=-5.8695, activity=0.0028243, ref=SER (default)
  O : moles=2.5479e-16, x=0, mu/RT=-44.221, activity=6.2389e-20, ref=GAS

[OC parser] Parsed phases
  Phase condensed : moles=7.712e-05, volume=0
    Elements
      Cs = 1.40372e-07
      Mo = 7.69796e-05
      O = 2.54547e-16
    Species
      BCC_A2 : moles=7.712e-05, volume=0
        Cs = 1.40372e-07
        Mo = 7.69796e-05
        O = 2.54547e-16
  Phase gas : moles=4.905e-05, volume=1.39e-06
    Elements
      Cs = 4.905e-05
      Mo = 6.47406e-22
      O = 2.3318e-19
    Species
      CS : moles=4.72789e-05, volume=0
      CS2 : moles=1.77113e-06, volume=0
      CS2MOO4 : moles=4.905e-35, volume=0
      CS2O : moles=2.41592e-19, volume=0
      CS2O2 : moles=4.905e-35, volume=0
      CSO : moles=7.83181e-24, volume=0
      MO : moles=6.70783e-22, volume=0
      MO2 : moles=1.38194e-29, volume=0
      MO2O6 : moles=4.905e-35, volume=0
      MO3O9 : moles=4.905e-35, volume=0
      MO4O12 : moles=4.905e-35, volume=0
      MO5O15 : moles=4.905e-35, volume=0
      MOO : moles=6.66428e-32, volume=0
      MOO2 : moles=4.905e-35, volume=0
      MOO3 : moles=4.905e-35, volume=0
      O : moles=2.21039e-30, volume=0
      O2 : moles=4.905e-35, volume=0
      O3 : moles=4.905e-35, volume=0
      are : moles=0.0008829, volume=0
OpenCalphad attempt for 'matrix' with WARM-START

[OC input] ./OCinput_matrix.OCM
----------------------------------------
r u ./OCoutput_matrix.OCU

set ref o gas * 100000

set c t=1428
set c p=472000
set c n(o)=0.664991
set c n(pu)=0.0948194
set c n(u)=0.24019
c e
c w

save u ./OCoutput_matrix Y

l /out=./OCoutput_matrix.DAT r 1

fin
----------------------------------------

3A unfished preparations for XTDB


Open Calphad (OC) software version   6.106 , linked 2026-04-16
with command line monitor version  73

This program is available with a GNU General Public License.
either version 2 of the License, or any later version.
It includes the General Thermodynamic Package, version GTP-3.31,
Hillert's equilibrium calculation algorithm version HMS-3.0 ,
step/map/plot software version SMP-2.30 using GNUPLOT 5.2 graphics.
Numerical routines are extracted from LAPACK and BLAS and
the assessment procedure uses LMDIF from ANL.

Linked with OpenMp for parallel execution
 Warning, no environment variable OCHOME and no help file
 Working directory is: /home/ecappellari/transparant/sciantix-official/regression/test_JOG_MOX/point_07_r_2p0mm
--->OC6:
Read unformatted file: This is a save file for OC version:     OCF-3.20
Generated:  2026.04.19 21h33

 3E reading unformatted:        15024           0           0
3E Addition type   1, Inden-Hillert magn model for BCC_A2
3E Addition type   1, Inden-Hillert magn model for FCC_A1
 3E no experimental data
 3E no coefficient values saved
 3E Read assessment record
 No coefficients allocated
--->OC6:--->OC6:--->OC6:--->OC6:--->OC6:--->OC6:--->OC6:--->OC6:--->OC6:3Y Removed  1 gridpoints by merging
Gridmin:    7483 points   1.83E-02 s and      17 clockcycles, T= 1428.00
 3Y leaving global_gridmin
Phase change iteration:     4  -C1_MO2_AUTO#2
Equilibrium result:  18 its,  1.9746E-02 s,     20 cc, GS= -4.2810296E+05 J/mol
--->OC6:Equilibrium result:   9 its,  6.1800E-04 s,      1 cc, GS= -4.2810293E+05 J/mol
3Y Testing if any gridpoint is below the calculated equilibrium
--->OC6:--->OC6:
Overwriting previous results on ./OCoutput_matrix.OCU
3E allocating workspace:     122160          (   2160,   10000,    2)
 3E saving            3  symbols as texts
 3E used        12117  words out of       122160  for storing static data
 ceqrecsize not implemented          26
 3E Saving an equilibrium record requires     2854       0 words
 3E not storing unused equilibria from:            2
 3E Saving assessment record
 3E No experimental equilibrium range set
 3E allocating assessment head record          48
 3E no coefficients allocated
 3E no work array (assrec%wopt) allocated
Used    15059 words out of   122160,  12.33% for unformatted memory save
Written workspace      60236 bytes unformatted on ./OCoutput_matrix.OCU
--->OC6:--->OC6:Output on file: ./OCoutput_matrix.DAT
Output unit reset to screen:    6
--->OC6:--->OC6:
[OC output] ./OCoutput_matrix.DAT
----------------------------------------

%%%%%%%%%% OC output written: 2026-04-19  21h33

Output for equilibrium:   1, DEFAULT_EQUILIBRIUM          2026.04.19
Conditions .................................................:
  1:T=1428, 2:P=472000, 3:N(O)=0.664991, 4:N(PU)=.0948194, 5:N(U)=0.24019
 Degrees of freedom are   0

Some global data, reference state SER ......................:
T=   1428.00 K (  1154.85 C), P=  4.7200E+05 Pa, V=  0.0000E+00 m3
N=   1.0000E+00 moles, B=   9.0953E+01 g, RT=   1.1873E+04 J/mol
G= -4.28103E+05 J, G/N=-4.2810E+05 J/mol, H=-3.2913E+05 J, S= 6.931E+01 J/K

Some data for components ...................................:
Component name    Moles      Mole-fr  Chem.pot/RT  Activities  Ref.state
O                 6.6499E-01  0.66499 -2.1918E+01  3.0293E-10  GAS             
PU                9.4819E-02  0.09482 -3.7873E+01  3.5650E-17  SER (default)   
U                 2.4019E-01  0.24019 -3.8393E+01  2.1198E-17  SER (default)   

Some data for phases .......................................:
Name                Status Moles      Volume    Form.Units Cmp/FU dGm/RT  Comp:
C1_MO2#1................ E  1.000E+00  0.00E+00  3.35E-01    2.98  0.00E+00  X:
 O      6.64991E-01  U      2.40190E-01  PU     9.48194E-02


----------------------------------------

[OC parser] Parsed components
  O : moles=0.66499, x=0.66499, mu/RT=-21.918, activity=3.0293e-10, ref=GAS
  Pu : moles=0.094819, x=0.09482, mu/RT=-37.873, activity=3.565e-17, ref=SER (default)
  U : moles=0.24019, x=0.24019, mu/RT=-38.393, activity=2.1198e-17, ref=SER (default)

[OC parser] Parsed phases
  Phase condensed : moles=1, volume=0
    Elements
      O = 0.664991
      Pu = 0.0948194
      U = 0.24019
    Species
      C1_MO2 : moles=1, volume=0
        O = 0.664991
        Pu = 0.0948194
        U = 0.24019
OpenCalphad attempt for 'at grain boundary' with WARM-START

[OC input] ./OCinput_fission_products.OCM
----------------------------------------
r u ./OCoutput_fission_products.OCU

set ref o gas * 100000

set c t=1428
set c p=472000
set c n(cs)=6.98332e-05
set c n(mo)=0.000114623
set c n(o)=0.999816
c e
set c n(o)=none
set c mu(o)=-520457

c w

save u ./OCoutput_fission_products Y

l /out=./OCoutput_fission_products.DAT r 1

fin
----------------------------------------

3A unfished preparations for XTDB


Open Calphad (OC) software version   6.106 , linked 2026-04-16
with command line monitor version  73

This program is available with a GNU General Public License.
either version 2 of the License, or any later version.
It includes the General Thermodynamic Package, version GTP-3.31,
Hillert's equilibrium calculation algorithm version HMS-3.0 ,
step/map/plot software version SMP-2.30 using GNUPLOT 5.2 graphics.
Numerical routines are extracted from LAPACK and BLAS and
the assessment procedure uses LMDIF from ANL.

Linked with OpenMp for parallel execution
 Warning, no environment variable OCHOME and no help file
 Working directory is: /home/ecappellari/transparant/sciantix-official/regression/test_JOG_MOX/point_07_r_2p0mm
--->OC6:
Read unformatted file: This is a save file for OC version:     OCF-3.20
Generated:  2026.04.19 21h33

 3E reading unformatted:        16432           0           0
3E Addition type   1, Inden-Hillert magn model for BCC_A2
3E Addition type   1, Inden-Hillert magn model for FCC_A1
3E Addition type   1, Inden-Hillert magn model for HCP_A3
 3E no experimental data
 3E no coefficient values saved
 3E Read assessment record
 No coefficients allocated
--->OC6:--->OC6:--->OC6:--->OC6:--->OC6:--->OC6:--->OC6:--->OC6:--->OC6:
Error codes:   4144     0    50
Message: Degrees of freedom not zero

--->OC6:--->OC6:--->OC6:--->OC6:Equilibrium result:  10 its,  7.4400E-04 s,      0 cc, GS= -2.0513018E+01 J/mol
3Y Testing if any gridpoint is below the calculated equilibrium
--->OC6:--->OC6:
Overwriting previous results on ./OCoutput_fission_products.OCU
3E allocating workspace:     123330          (   3330,   10000,    2)
 3E saving            3  symbols as texts
 3E used        12286  words out of       123330  for storing static data
 ceqrecsize not implemented          39
 3E Saving an equilibrium record requires     4092       0 words
 3E not storing unused equilibria from:            2
 3E Saving assessment record
 3E No experimental equilibrium range set
 3E allocating assessment head record          48
 3E no coefficients allocated
 3E no work array (assrec%wopt) allocated
Used    16466 words out of   123330,  13.35% for unformatted memory save
Written workspace      65864 bytes unformatted on ./OCoutput_fission_products.OCU
--->OC6:--->OC6:Output on file: ./OCoutput_fission_products.DAT
Output unit reset to screen:    6
--->OC6:--->OC6:
[OC output] ./OCoutput_fission_products.DAT
----------------------------------------

%%%%%%%%%% OC output written: 2026-04-19  21h33

Output for equilibrium:   1, DEFAULT_EQUILIBRIUM          2026.04.19
Conditions .................................................:
  1:T=1428, 2:P=472000, 3:N(CS)=6.98332E-05, 4:N(MO)=.000114623, 5:MU(O)=
    -520457
 Degrees of freedom are   0

Some global data, reference state SER ......................:
T=   1428.00 K (  1154.85 C), P=  4.7200E+05 Pa, V=  1.6805E-06 m3
N=   1.8446E-04 moles, B=   2.0278E-02 g, RT=   1.1873E+04 J/mol
G= -2.05130E+01 J, G/N=-1.1121E+05 J/mol, H= 1.0435E+01 J, S= 2.167E-02 J/K

Some data for components ...................................:
Component name    Moles      Mole-fr  Chem.pot/RT  Activities  Ref.state
CS                6.9833E-05  0.37859 -1.5106E+01  2.7524E-07  SER (default)   
MO                1.1462E-04  0.62141 -5.8698E+00  2.8235E-03  SER (default)   
O                 3.7974E-16  0.00000 -4.3835E+01  9.1780E-20  GAS             

Some data for phases .......................................:
Name                Status Moles      Volume    Form.Units Cmp/FU dGm/RT  Comp:
GAS..................... E  6.959E-05  1.68E-06  6.68E-05    1.04  0.00E+00  X:
 CS     1.00000E+00  O      8.68240E-15  MO     1.12334E-17
Constitution: There are    18 constituents:
 CS           9.58301E-01  O            6.13319E-26  MOO2         1.00000E-30
 CS2          4.16985E-02  MOO          1.84860E-27  MOO3         1.00000E-30
 CS2O         9.04419E-15  MO3O9        1.00000E-30  CS2O2        1.00000E-30
 MO           1.17018E-17  MO4O12       1.00000E-30  O2           1.00000E-30
 CSO          2.52415E-19  MO5O15       1.00000E-30  O3           1.00000E-30
 MO2          2.41009E-25  MO2O6        1.00000E-30  CS2MOO4      1.00000E-30

BCC_A2#1................ E  1.149E-04  0.00E+00  1.15E-04    1.00  0.00E+00  X:
 MO     9.97880E-01  CS     2.11953E-03  O      3.30066E-12


----------------------------------------

[OC parser] Parsed components
  Cs : moles=6.9833e-05, x=0.37859, mu/RT=-15.106, activity=2.7524e-07, ref=SER (default)
  Mo : moles=0.00011462, x=0.62141, mu/RT=-5.8698, activity=0.0028235, ref=SER (default)
  O : moles=3.7974e-16, x=0, mu/RT=-43.835, activity=9.178e-20, ref=GAS

[OC parser] Parsed phases
  Phase condensed : moles=0.0001149, volume=0
    Elements
      Cs = 2.43534e-07
      Mo = 0.000114656
      O = 3.79246e-16
    Species
      BCC_A2 : moles=0.0001149, volume=0
        Cs = 2.43534e-07
        Mo = 0.000114656
        O = 3.79246e-16
  Phase gas : moles=6.959e-05, volume=1.68e-06
    Elements
      Cs = 6.959e-05
      Mo = 7.81732e-22
      O = 6.04208e-19
    Species
      CS : moles=6.66882e-05, volume=0
      CS2 : moles=2.9018e-06, volume=0
      CS2MOO4 : moles=6.959e-35, volume=0
      CS2O : moles=6.29385e-19, volume=0
      CS2O2 : moles=6.959e-35, volume=0
      CSO : moles=1.75656e-23, volume=0
      MO : moles=8.14328e-22, volume=0
      MO2 : moles=1.67718e-29, volume=0
      MO2O6 : moles=6.959e-35, volume=0
      MO3O9 : moles=6.959e-35, volume=0
      MO4O12 : moles=6.959e-35, volume=0
      MO5O15 : moles=6.959e-35, volume=0
      MOO : moles=1.28644e-31, volume=0
      MOO2 : moles=6.959e-35, volume=0
      MOO3 : moles=6.959e-35, volume=0
      O : moles=4.26809e-30, volume=0
      O2 : moles=6.959e-35, volume=0
      O3 : moles=6.959e-35, volume=0
      are : moles=0.00125262, volume=0
OpenCalphad attempt for 'matrix' with WARM-START

[OC input] ./OCinput_matrix.OCM
----------------------------------------
r u ./OCoutput_matrix.OCU

set ref o gas * 100000

set c t=1428
set c p=540000
set c n(o)=0.665273
set c n(pu)=0.0944357
set c n(u)=0.240292
c e
c w

save u ./OCoutput_matrix Y

l /out=./OCoutput_matrix.DAT r 1

fin
----------------------------------------

3A unfished preparations for XTDB


Open Calphad (OC) software version   6.106 , linked 2026-04-16
with command line monitor version  73

This program is available with a GNU General Public License.
either version 2 of the License, or any later version.
It includes the General Thermodynamic Package, version GTP-3.31,
Hillert's equilibrium calculation algorithm version HMS-3.0 ,
step/map/plot software version SMP-2.30 using GNUPLOT 5.2 graphics.
Numerical routines are extracted from LAPACK and BLAS and
the assessment procedure uses LMDIF from ANL.

Linked with OpenMp for parallel execution
 Warning, no environment variable OCHOME and no help file
 Working directory is: /home/ecappellari/transparant/sciantix-official/regression/test_JOG_MOX/point_07_r_2p0mm
--->OC6:
Read unformatted file: This is a save file for OC version:     OCF-3.20
Generated:  2026.04.19 21h33

 3E reading unformatted:        15024           0           0
3E Addition type   1, Inden-Hillert magn model for BCC_A2
3E Addition type   1, Inden-Hillert magn model for FCC_A1
 3E no experimental data
 3E no coefficient values saved
 3E Read assessment record
 No coefficients allocated
--->OC6:--->OC6:--->OC6:--->OC6:--->OC6:--->OC6:--->OC6:--->OC6:--->OC6:3Y Removed  1 gridpoints by merging
Gridmin:    7483 points   1.73E-02 s and      14 clockcycles, T= 1428.00
 3Y leaving global_gridmin
Phase change iteration:     5  -C1_MO2_AUTO#2
Phase change iteration:     9  +PU2O3
Phase change iteration:    13  -PU2O3
Equilibrium result:  41 its,  2.0472E-02 s,     20 cc, GS= -4.2809244E+05 J/mol
--->OC6:Equilibrium result:   9 its,  6.3100E-04 s,      0 cc, GS= -4.2809244E+05 J/mol
3Y Testing if any gridpoint is below the calculated equilibrium
--->OC6:--->OC6:
Overwriting previous results on ./OCoutput_matrix.OCU
3E allocating workspace:     122160          (   2160,   10000,    2)
 3E saving            3  symbols as texts
 3E used        12117  words out of       122160  for storing static data
 ceqrecsize not implemented          26
 3E Saving an equilibrium record requires     2854       0 words
 3E not storing unused equilibria from:            2
 3E Saving assessment record
 3E No experimental equilibrium range set
 3E allocating assessment head record          48
 3E no coefficients allocated
 3E no work array (assrec%wopt) allocated
Used    15059 words out of   122160,  12.33% for unformatted memory save
Written workspace      60236 bytes unformatted on ./OCoutput_matrix.OCU
--->OC6:--->OC6:Output on file: ./OCoutput_matrix.DAT
Output unit reset to screen:    6
--->OC6:--->OC6:
[OC output] ./OCoutput_matrix.DAT
----------------------------------------

%%%%%%%%%% OC output written: 2026-04-19  21h33

Output for equilibrium:   1, DEFAULT_EQUILIBRIUM          2026.04.19
Conditions .................................................:
  1:T=1428, 2:P=540000, 3:N(O)=0.665273, 4:N(PU)=.0944357, 5:N(U)=0.240292
 Degrees of freedom are   0

Some global data, reference state SER ......................:
T=   1428.00 K (  1154.85 C), P=  5.4000E+05 Pa, V=  0.0000E+00 m3
N=   1.0000E+00 moles, B=   9.0888E+01 g, RT=   1.1873E+04 J/mol
G= -4.28092E+05 J, G/N=-4.2809E+05 J/mol, H=-3.2922E+05 J, S= 6.924E+01 J/K

Some data for components ...................................:
Component name    Moles      Mole-fr  Chem.pot/RT  Activities  Ref.state
O                 6.6527E-01  0.66527 -2.1679E+01  3.8436E-10  GAS             
PU                9.4436E-02  0.09444 -3.8471E+01  1.9598E-17  SER (default)   
U                 2.4029E-01  0.24029 -3.9002E+01  1.1521E-17  SER (default)   

Some data for phases .......................................:
Name                Status Moles      Volume    Form.Units Cmp/FU dGm/RT  Comp:
C1_MO2#1................ E  1.000E+00  0.00E+00  3.35E-01    2.99  0.00E+00  X:
 O      6.65273E-01  U      2.40292E-01  PU     9.44356E-02


----------------------------------------

[OC parser] Parsed components
  O : moles=0.66527, x=0.66527, mu/RT=-21.679, activity=3.8436e-10, ref=GAS
  Pu : moles=0.094436, x=0.09444, mu/RT=-38.471, activity=1.9598e-17, ref=SER (default)
  U : moles=0.24029, x=0.24029, mu/RT=-39.002, activity=1.1521e-17, ref=SER (default)

[OC parser] Parsed phases
  Phase condensed : moles=1, volume=0
    Elements
      O = 0.665273
      Pu = 0.0944356
      U = 0.240292
    Species
      C1_MO2 : moles=1, volume=0
        O = 0.665273
        Pu = 0.0944356
        U = 0.240292
OpenCalphad attempt for 'at grain boundary' with WARM-START

[OC input] ./OCinput_fission_products.OCM
----------------------------------------
r u ./OCoutput_fission_products.OCU

set ref o gas * 100000

set c t=1428
set c p=540000
set c n(cs)=9.27475e-05
set c n(mo)=0.000156545
set c n(o)=0.999751
c e
set c n(o)=none
set c mu(o)=-514782

c w

save u ./OCoutput_fission_products Y

l /out=./OCoutput_fission_products.DAT r 1

fin
----------------------------------------

3A unfished preparations for XTDB


Open Calphad (OC) software version   6.106 , linked 2026-04-16
with command line monitor version  73

This program is available with a GNU General Public License.
either version 2 of the License, or any later version.
It includes the General Thermodynamic Package, version GTP-3.31,
Hillert's equilibrium calculation algorithm version HMS-3.0 ,
step/map/plot software version SMP-2.30 using GNUPLOT 5.2 graphics.
Numerical routines are extracted from LAPACK and BLAS and
the assessment procedure uses LMDIF from ANL.

Linked with OpenMp for parallel execution
 Warning, no environment variable OCHOME and no help file
 Working directory is: /home/ecappellari/transparant/sciantix-official/regression/test_JOG_MOX/point_07_r_2p0mm
--->OC6:
Read unformatted file: This is a save file for OC version:     OCF-3.20
Generated:  2026.04.19 21h33

 3E reading unformatted:        16431           0           0
3E Addition type   1, Inden-Hillert magn model for BCC_A2
3E Addition type   1, Inden-Hillert magn model for FCC_A1
3E Addition type   1, Inden-Hillert magn model for HCP_A3
 3E no experimental data
 3E no coefficient values saved
 3E Read assessment record
 No coefficients allocated
--->OC6:--->OC6:--->OC6:--->OC6:--->OC6:--->OC6:--->OC6:--->OC6:--->OC6:
Error codes:   4144     0    50
Message: Degrees of freedom not zero

--->OC6:--->OC6:--->OC6:--->OC6:Equilibrium result:  13 its,  8.9000E-04 s,      1 cc, GS= -2.7403001E+01 J/mol
3Y Testing if any gridpoint is below the calculated equilibrium
--->OC6:--->OC6:
Overwriting previous results on ./OCoutput_fission_products.OCU
3E allocating workspace:     123330          (   3330,   10000,    2)
 3E saving            3  symbols as texts
 3E used        12286  words out of       123330  for storing static data
 ceqrecsize not implemented          39
 3E Saving an equilibrium record requires     4092       0 words
 3E not storing unused equilibria from:            2
 3E Saving assessment record
 3E No experimental equilibrium range set
 3E allocating assessment head record          48
 3E no coefficients allocated
 3E no work array (assrec%wopt) allocated
Used    16466 words out of   123330,  13.35% for unformatted memory save
Written workspace      65864 bytes unformatted on ./OCoutput_fission_products.OCU
--->OC6:--->OC6:Output on file: ./OCoutput_fission_products.DAT
Output unit reset to screen:    6
--->OC6:--->OC6:
[OC output] ./OCoutput_fission_products.DAT
----------------------------------------

%%%%%%%%%% OC output written: 2026-04-19  21h33

Output for equilibrium:   1, DEFAULT_EQUILIBRIUM          2026.04.19
Conditions .................................................:
  1:T=1428, 2:P=540000, 3:N(CS)=9.27475E-05, 4:N(MO)=.000156545, 5:MU(O)=
    -514782
 Degrees of freedom are   0

Some global data, reference state SER ......................:
T=   1428.00 K (  1154.85 C), P=  5.4000E+05 Pa, V=  1.9395E-06 m3
N=   2.4929E-04 moles, B=   2.7346E-02 g, RT=   1.1873E+04 J/mol
G= -2.74030E+01 J, G/N=-1.0992E+05 J/mol, H= 1.3970E+01 J, S= 2.897E-02 J/K

Some data for components ...................................:
Component name    Moles      Mole-fr  Chem.pot/RT  Activities  Ref.state
CS                9.2747E-05  0.37204 -1.4977E+01  3.1310E-07  SER (default)   
MO                1.5654E-04  0.62796 -5.8701E+00  2.8227E-03  SER (default)   
O                 5.1951E-16  0.00000 -4.3357E+01  1.4802E-19  GAS             

Some data for phases .......................................:
Name                Status Moles      Volume    Form.Units Cmp/FU dGm/RT  Comp:
GAS..................... E  9.237E-05  1.94E-06  8.82E-05    1.05  0.00E+00  X:
 CS     1.00000E+00  O      1.68522E-14  MO     9.76473E-18
Constitution: There are    18 constituents:
 CS           9.52837E-01  O            9.24784E-26  MOO2         1.00000E-30
 CS2          4.71634E-02  MOO          2.78657E-27  MOO3         1.00000E-30
 CS2O         1.76465E-14  MO3O9        1.00000E-30  CS2O2        1.00000E-30
 MO           1.02253E-17  MO4O12       1.00000E-30  O2           1.00000E-30
 CSO          4.32950E-19  MO5O15       1.00000E-30  O3           1.00000E-30
 MO2          2.10537E-25  MO2O6        1.00000E-30  CS2MOO4      1.00000E-30

BCC_A2#1................ E  1.569E-04  0.00E+00  1.57E-04    1.00  0.00E+00  X:
 MO     9.97583E-01  CS     2.41709E-03  O      3.30066E-12


----------------------------------------

[OC parser] Parsed components
  Cs : moles=9.2747e-05, x=0.37204, mu/RT=-14.977, activity=3.131e-07, ref=SER (default)
  Mo : moles=0.00015654, x=0.62796, mu/RT=-5.8701, activity=0.0028227, ref=SER (default)
  O : moles=5.1951e-16, x=0, mu/RT=-43.357, activity=1.4802e-19, ref=GAS

[OC parser] Parsed phases
  Phase condensed : moles=0.0001569, volume=0
    Elements
      Cs = 3.79241e-07
      Mo = 0.000156521
      O = 5.17874e-16
    Species
      BCC_A2 : moles=0.0001569, volume=0
        Cs = 3.79241e-07
        Mo = 0.000156521
        O = 5.17874e-16
  Phase gas : moles=9.237e-05, volume=1.94e-06
    Elements
      Cs = 9.237e-05
      Mo = 9.01968e-22
      O = 1.55664e-18
    Species
      CS : moles=8.80136e-05, volume=0
      CS2 : moles=4.35648e-06, volume=0
      CS2MOO4 : moles=9.237e-35, volume=0
      CS2O : moles=1.63001e-18, volume=0
      CS2O2 : moles=9.237e-35, volume=0
      CSO : moles=3.99916e-23, volume=0
      MO : moles=9.44511e-22, volume=0
      MO2 : moles=1.94473e-29, volume=0
      MO2O6 : moles=9.237e-35, volume=0
      MO3O9 : moles=9.237e-35, volume=0
      MO4O12 : moles=9.237e-35, volume=0
      MO5O15 : moles=9.237e-35, volume=0
      MOO : moles=2.57395e-31, volume=0
      MOO2 : moles=9.237e-35, volume=0
      MOO3 : moles=9.237e-35, volume=0
      O : moles=8.54223e-30, volume=0
      O2 : moles=9.237e-35, volume=0
      O3 : moles=9.237e-35, volume=0
      are : moles=0.00166266, volume=0
OpenCalphad attempt for 'matrix' with WARM-START

[OC input] ./OCinput_matrix.OCM
----------------------------------------
r u ./OCoutput_matrix.OCU

set ref o gas * 100000

set c t=1428
set c p=608000
set c n(o)=0.665555
set c n(pu)=0.0940517
set c n(u)=0.240394
c e
c w

save u ./OCoutput_matrix Y

l /out=./OCoutput_matrix.DAT r 1

fin
----------------------------------------

3A unfished preparations for XTDB


Open Calphad (OC) software version   6.106 , linked 2026-04-16
with command line monitor version  73

This program is available with a GNU General Public License.
either version 2 of the License, or any later version.
It includes the General Thermodynamic Package, version GTP-3.31,
Hillert's equilibrium calculation algorithm version HMS-3.0 ,
step/map/plot software version SMP-2.30 using GNUPLOT 5.2 graphics.
Numerical routines are extracted from LAPACK and BLAS and
the assessment procedure uses LMDIF from ANL.

Linked with OpenMp for parallel execution
 Warning, no environment variable OCHOME and no help file
 Working directory is: /home/ecappellari/transparant/sciantix-official/regression/test_JOG_MOX/point_07_r_2p0mm
--->OC6:
Read unformatted file: This is a save file for OC version:     OCF-3.20
Generated:  2026.04.19 21h33

 3E reading unformatted:        15024           0           0
3E Addition type   1, Inden-Hillert magn model for BCC_A2
3E Addition type   1, Inden-Hillert magn model for FCC_A1
 3E no experimental data
 3E no coefficient values saved
 3E Read assessment record
 No coefficients allocated
--->OC6:--->OC6:--->OC6:--->OC6:--->OC6:--->OC6:--->OC6:--->OC6:--->OC6:3Y Removed  1 gridpoints by merging
Gridmin:    7483 points   2.21E-02 s and      18 clockcycles, T= 1428.00
 3Y leaving global_gridmin
Phase change iteration:     5  -C1_MO2_AUTO#2
Equilibrium result:  42 its,  3.0969E-02 s,     31 cc, GS= -4.2807860E+05 J/mol
--->OC6:Equilibrium result:   9 its,  7.4900E-04 s,      0 cc, GS= -4.2807860E+05 J/mol
3Y Testing if any gridpoint is below the calculated equilibrium
--->OC6:--->OC6:
Overwriting previous results on ./OCoutput_matrix.OCU
3E allocating workspace:     122160          (   2160,   10000,    2)
 3E saving            3  symbols as texts
 3E used        12117  words out of       122160  for storing static data
 ceqrecsize not implemented          26
 3E Saving an equilibrium record requires     2854       0 words
 3E not storing unused equilibria from:            2
 3E Saving assessment record
 3E No experimental equilibrium range set
 3E allocating assessment head record          48
 3E no coefficients allocated
 3E no work array (assrec%wopt) allocated
Used    15059 words out of   122160,  12.33% for unformatted memory save
Written workspace      60236 bytes unformatted on ./OCoutput_matrix.OCU
--->OC6:--->OC6:Output on file: ./OCoutput_matrix.DAT
Output unit reset to screen:    6
--->OC6:--->OC6:
[OC output] ./OCoutput_matrix.DAT
----------------------------------------

%%%%%%%%%% OC output written: 2026-04-19  21h33

Output for equilibrium:   1, DEFAULT_EQUILIBRIUM          2026.04.19
Conditions .................................................:
  1:T=1428, 2:P=608000, 3:N(O)=0.665555, 4:N(PU)=.0940517, 5:N(U)=0.240394
 Degrees of freedom are   0

Some global data, reference state SER ......................:
T=   1428.00 K (  1154.85 C), P=  6.0800E+05 Pa, V=  0.0000E+00 m3
N=   1.0000E+00 moles, B=   9.0823E+01 g, RT=   1.1873E+04 J/mol
G= -4.28079E+05 J, G/N=-4.2808E+05 J/mol, H=-3.2930E+05 J, S= 6.917E+01 J/K

Some data for components ...................................:
Component name    Moles      Mole-fr  Chem.pot/RT  Activities  Ref.state
O                 6.6555E-01  0.66555 -2.1387E+01  5.1499E-10  GAS             
PU                9.4052E-02  0.09405 -3.9162E+01  9.8207E-18  SER (default)   
U                 2.4039E-01  0.24039 -3.9706E+01  5.7023E-18  SER (default)   

Some data for phases .......................................:
Name                Status Moles      Volume    Form.Units Cmp/FU dGm/RT  Comp:
C1_MO2#1................ E  1.000E+00  0.00E+00  3.34E-01    2.99  0.00E+00  X:
 O      6.65555E-01  U      2.40394E-01  PU     9.40516E-02


----------------------------------------

[OC parser] Parsed components
  O : moles=0.66555, x=0.66555, mu/RT=-21.387, activity=5.1499e-10, ref=GAS
  Pu : moles=0.094052, x=0.09405, mu/RT=-39.162, activity=9.8207e-18, ref=SER (default)
  U : moles=0.24039, x=0.24039, mu/RT=-39.706, activity=5.7023e-18, ref=SER (default)

[OC parser] Parsed phases
  Phase condensed : moles=1, volume=0
    Elements
      O = 0.665555
      Pu = 0.0940516
      U = 0.240394
    Species
      C1_MO2 : moles=1, volume=0
        O = 0.665555
        Pu = 0.0940516
        U = 0.240394
OpenCalphad attempt for 'at grain boundary' with WARM-START

[OC input] ./OCinput_fission_products.OCM
----------------------------------------
r u ./OCoutput_fission_products.OCU

set ref o gas * 100000

set c t=1428
set c p=608000
set c n(cs)=0.000102386
set c n(mo)=0.000202238
set c n(o)=0.999695
c e
set c n(o)=none
set c mu(o)=-507848

c w

save u ./OCoutput_fission_products Y

l /out=./OCoutput_fission_products.DAT r 1

fin
----------------------------------------

3A unfished preparations for XTDB


Open Calphad (OC) software version   6.106 , linked 2026-04-16
with command line monitor version  73

This program is available with a GNU General Public License.
either version 2 of the License, or any later version.
It includes the General Thermodynamic Package, version GTP-3.31,
Hillert's equilibrium calculation algorithm version HMS-3.0 ,
step/map/plot software version SMP-2.30 using GNUPLOT 5.2 graphics.
Numerical routines are extracted from LAPACK and BLAS and
the assessment procedure uses LMDIF from ANL.

Linked with OpenMp for parallel execution
 Warning, no environment variable OCHOME and no help file
 Working directory is: /home/ecappellari/transparant/sciantix-official/regression/test_JOG_MOX/point_07_r_2p0mm
--->OC6:
Read unformatted file: This is a save file for OC version:     OCF-3.20
Generated:  2026.04.19 21h33

 3E reading unformatted:        16431           0           0
3E Addition type   1, Inden-Hillert magn model for BCC_A2
3E Addition type   1, Inden-Hillert magn model for FCC_A1
3E Addition type   1, Inden-Hillert magn model for HCP_A3
 3E no experimental data
 3E no coefficient values saved
 3E Read assessment record
 No coefficients allocated
--->OC6:--->OC6:--->OC6:--->OC6:--->OC6:--->OC6:--->OC6:--->OC6:--->OC6:
Error codes:   4144     0    50
Message: Degrees of freedom not zero

--->OC6:--->OC6:--->OC6:--->OC6:Equilibrium result:   9 its,  6.6300E-04 s,      1 cc, GS= -3.2164904E+01 J/mol
3Y Testing if any gridpoint is below the calculated equilibrium
--->OC6:--->OC6:
Overwriting previous results on ./OCoutput_fission_products.OCU
3E allocating workspace:     123330          (   3330,   10000,    2)
 3E saving            3  symbols as texts
 3E used        12286  words out of       123330  for storing static data
 ceqrecsize not implemented          39
 3E Saving an equilibrium record requires     4092       0 words
 3E not storing unused equilibria from:            2
 3E Saving assessment record
 3E No experimental equilibrium range set
 3E allocating assessment head record          48
 3E no coefficients allocated
 3E no work array (assrec%wopt) allocated
Used    16466 words out of   123330,  13.35% for unformatted memory save
Written workspace      65864 bytes unformatted on ./OCoutput_fission_products.OCU
--->OC6:--->OC6:Output on file: ./OCoutput_fission_products.DAT
Output unit reset to screen:    6
--->OC6:--->OC6:
[OC output] ./OCoutput_fission_products.DAT
----------------------------------------

%%%%%%%%%% OC output written: 2026-04-19  21h33

Output for equilibrium:   1, DEFAULT_EQUILIBRIUM          2026.04.19
Conditions .................................................:
  1:T=1428, 2:P=608000, 3:N(CS)=.000102386, 4:N(MO)=.000202238, 5:MU(O)=
    -507848
 Degrees of freedom are   0

Some global data, reference state SER ......................:
T=   1428.00 K (  1154.85 C), P=  6.0800E+05 Pa, V=  1.8895E-06 m3
N=   3.0462E-04 moles, B=   3.3011E-02 g, RT=   1.1873E+04 J/mol
G= -3.21649E+01 J, G/N=-1.0559E+05 J/mol, H= 1.6318E+01 J, S= 3.395E-02 J/K

Some data for components ...................................:
Component name    Moles      Mole-fr  Chem.pot/RT  Activities  Ref.state
CS                1.0239E-04  0.33611 -1.4864E+01  3.5055E-07  SER (default)   
MO                2.0224E-04  0.66389 -5.8704E+00  2.8218E-03  SER (default)   
O                 6.7295E-16  0.00000 -4.2773E+01  2.6543E-19  GAS             

Some data for phases .......................................:
Name                Status Moles      Volume    Form.Units Cmp/FU dGm/RT  Comp:
GAS..................... E  1.018E-04  1.89E-06  9.68E-05    1.05  0.00E+00  X:
 CS     1.00000E+00  O      3.55184E-14  MO     8.62608E-18
Constitution: There are    18 constituents:
 CS           9.47492E-01  O            1.56285E-25  MOO2         1.00000E-30
 CS2          5.25084E-02  MOO          4.70782E-27  MOO3         1.00000E-30
 CS2O         3.73826E-14  MO3O9        1.00000E-30  CS2O2        1.00000E-30
 MO           9.07902E-18  MO4O12       1.00000E-30  O2           1.00000E-30
 CSO          8.19183E-19  MO5O15       1.00000E-30  O3           1.00000E-30
 MO2          1.86881E-25  MO2O6        1.00000E-30  CS2MOO4      1.00000E-30

BCC_A2#1................ E  2.028E-04  0.00E+00  2.03E-04    1.00  0.00E+00  X:
 MO     9.97287E-01  CS     2.71294E-03  O      3.30066E-12


----------------------------------------

[OC parser] Parsed components
  Cs : moles=0.00010239, x=0.33611, mu/RT=-14.864, activity=3.5055e-07, ref=SER (default)
  Mo : moles=0.00020224, x=0.66389, mu/RT=-5.8704, activity=0.0028218, ref=SER (default)
  O : moles=6.7295e-16, x=0, mu/RT=-42.773, activity=2.6543e-19, ref=GAS

[OC parser] Parsed phases
  Phase condensed : moles=0.0002028, volume=0
    Elements
      Cs = 5.50184e-07
      Mo = 0.00020225
      O = 6.69374e-16
    Species
      BCC_A2 : moles=0.0002028, volume=0
        Cs = 5.50184e-07
        Mo = 0.00020225
        O = 6.69374e-16
  Phase gas : moles=0.0001018, volume=1.89e-06
    Elements
      Cs = 0.0001018
      Mo = 8.78135e-22
      O = 3.61577e-18
    Species
      CS : moles=9.64547e-05, volume=0
      CS2 : moles=5.34536e-06, volume=0
      CS2MOO4 : moles=1.018e-34, volume=0
      CS2O : moles=3.80555e-18, volume=0
      CS2O2 : moles=1.018e-34, volume=0
      CSO : moles=8.33928e-23, volume=0
      MO : moles=9.24244e-22, volume=0
      MO2 : moles=1.90245e-29, volume=0
      MO2O6 : moles=1.018e-34, volume=0
      MO3O9 : moles=1.018e-34, volume=0
      MO4O12 : moles=1.018e-34, volume=0
      MO5O15 : moles=1.018e-34, volume=0
      MOO : moles=4.79256e-31, volume=0
      MOO2 : moles=1.018e-34, volume=0
      MOO3 : moles=1.018e-34, volume=0
      O : moles=1.59098e-29, volume=0
      O2 : moles=1.018e-34, volume=0
      O3 : moles=1.018e-34, volume=0
      are : moles=0.0018324, volume=0
OpenCalphad attempt for 'matrix' with WARM-START

[OC input] ./OCinput_matrix.OCM
----------------------------------------
r u ./OCoutput_matrix.OCU

set ref o gas * 100000

set c t=1428
set c p=676000
set c n(o)=0.665837
set c n(pu)=0.0936674
set c n(u)=0.240496
c e
c w

save u ./OCoutput_matrix Y

l /out=./OCoutput_matrix.DAT r 1

fin
----------------------------------------

3A unfished preparations for XTDB


Open Calphad (OC) software version   6.106 , linked 2026-04-16
with command line monitor version  73

This program is available with a GNU General Public License.
either version 2 of the License, or any later version.
It includes the General Thermodynamic Package, version GTP-3.31,
Hillert's equilibrium calculation algorithm version HMS-3.0 ,
step/map/plot software version SMP-2.30 using GNUPLOT 5.2 graphics.
Numerical routines are extracted from LAPACK and BLAS and
the assessment procedure uses LMDIF from ANL.

Linked with OpenMp for parallel execution
 Warning, no environment variable OCHOME and no help file
 Working directory is: /home/ecappellari/transparant/sciantix-official/regression/test_JOG_MOX/point_07_r_2p0mm
--->OC6:
Read unformatted file: This is a save file for OC version:     OCF-3.20
Generated:  2026.04.19 21h33

 3E reading unformatted:        15024           0           0
3E Addition type   1, Inden-Hillert magn model for BCC_A2
3E Addition type   1, Inden-Hillert magn model for FCC_A1
 3E no experimental data
 3E no coefficient values saved
 3E Read assessment record
 No coefficients allocated
--->OC6:--->OC6:--->OC6:--->OC6:--->OC6:--->OC6:--->OC6:--->OC6:--->OC6:3Y Removed  1 gridpoints by merging
Gridmin:    7483 points   1.64E-02 s and      14 clockcycles, T= 1428.00
 3Y leaving global_gridmin
Phase change iteration:     5  -C1_MO2_AUTO#2
Equilibrium result:  36 its,  1.9100E-02 s,     19 cc, GS= -4.2806081E+05 J/mol
--->OC6:Equilibrium result:   9 its,  6.5400E-04 s,      1 cc, GS= -4.2806081E+05 J/mol
3Y Testing if any gridpoint is below the calculated equilibrium
--->OC6:--->OC6:
Overwriting previous results on ./OCoutput_matrix.OCU
3E allocating workspace:     122160          (   2160,   10000,    2)
 3E saving            3  symbols as texts
 3E used        12117  words out of       122160  for storing static data
 ceqrecsize not implemented          26
 3E Saving an equilibrium record requires     2854       0 words
 3E not storing unused equilibria from:            2
 3E Saving assessment record
 3E No experimental equilibrium range set
 3E allocating assessment head record          48
 3E no coefficients allocated
 3E no work array (assrec%wopt) allocated
Used    15059 words out of   122160,  12.33% for unformatted memory save
Written workspace      60236 bytes unformatted on ./OCoutput_matrix.OCU
--->OC6:--->OC6:Output on file: ./OCoutput_matrix.DAT
Output unit reset to screen:    6
--->OC6:--->OC6:
[OC output] ./OCoutput_matrix.DAT
----------------------------------------

%%%%%%%%%% OC output written: 2026-04-19  21h33

Output for equilibrium:   1, DEFAULT_EQUILIBRIUM          2026.04.19
Conditions .................................................:
  1:T=1428, 2:P=676000, 3:N(O)=0.665837, 4:N(PU)=.0936674, 5:N(U)=0.240496
 Degrees of freedom are   0

Some global data, reference state SER ......................:
T=   1428.00 K (  1154.85 C), P=  6.7600E+05 Pa, V=  0.0000E+00 m3
N=   1.0000E+00 moles, B=   9.0758E+01 g, RT=   1.1873E+04 J/mol
G= -4.28061E+05 J, G/N=-4.2806E+05 J/mol, H=-3.2938E+05 J, S= 6.911E+01 J/K

Some data for components ...................................:
Component name    Moles      Mole-fr  Chem.pot/RT  Activities  Ref.state
O                 6.6584E-01  0.66584 -2.1018E+01  7.4507E-10  GAS             
PU                9.3667E-02  0.09367 -3.9993E+01  4.2767E-18  SER (default)   
U                 2.4050E-01  0.24050 -4.0550E+01  2.4500E-18  SER (default)   

Some data for phases .......................................:
Name                Status Moles      Volume    Form.Units Cmp/FU dGm/RT  Comp:
C1_MO2#1................ E  1.000E+00  0.00E+00  3.34E-01    2.99  0.00E+00  X:
 O      6.65837E-01  U      2.40496E-01  PU     9.36674E-02


----------------------------------------

[OC parser] Parsed components
  O : moles=0.66584, x=0.66584, mu/RT=-21.018, activity=7.4507e-10, ref=GAS
  Pu : moles=0.093667, x=0.09367, mu/RT=-39.993, activity=4.2767e-18, ref=SER (default)
  U : moles=0.2405, x=0.2405, mu/RT=-40.55, activity=2.45e-18, ref=SER (default)

[OC parser] Parsed phases
  Phase condensed : moles=1, volume=0
    Elements
      O = 0.665837
      Pu = 0.0936674
      U = 0.240496
    Species
      C1_MO2 : moles=1, volume=0
        O = 0.665837
        Pu = 0.0936674
        U = 0.240496
OpenCalphad attempt for 'at grain boundary' with WARM-START

[OC input] ./OCinput_fission_products.OCM
----------------------------------------
r u ./OCoutput_fission_products.OCU

set ref o gas * 100000

set c t=1428
set c p=676000
set c n(cs)=0.000119032
set c n(mo)=0.000251315
set c n(o)=0.99963
c e
set c n(o)=none
set c mu(o)=-499086

c w

save u ./OCoutput_fission_products Y

l /out=./OCoutput_fission_products.DAT r 1

fin
----------------------------------------

3A unfished preparations for XTDB


Open Calphad (OC) software version   6.106 , linked 2026-04-16
with command line monitor version  73

This program is available with a GNU General Public License.
either version 2 of the License, or any later version.
It includes the General Thermodynamic Package, version GTP-3.31,
Hillert's equilibrium calculation algorithm version HMS-3.0 ,
step/map/plot software version SMP-2.30 using GNUPLOT 5.2 graphics.
Numerical routines are extracted from LAPACK and BLAS and
the assessment procedure uses LMDIF from ANL.

Linked with OpenMp for parallel execution
 Warning, no environment variable OCHOME and no help file
 Working directory is: /home/ecappellari/transparant/sciantix-official/regression/test_JOG_MOX/point_07_r_2p0mm
--->OC6:
Read unformatted file: This is a save file for OC version:     OCF-3.20
Generated:  2026.04.19 21h33

 3E reading unformatted:        16431           0           0
3E Addition type   1, Inden-Hillert magn model for BCC_A2
3E Addition type   1, Inden-Hillert magn model for FCC_A1
3E Addition type   1, Inden-Hillert magn model for HCP_A3
 3E no experimental data
 3E no coefficient values saved
 3E Read assessment record
 No coefficients allocated
--->OC6:--->OC6:--->OC6:--->OC6:--->OC6:--->OC6:--->OC6:--->OC6:--->OC6:
Error codes:   4144     0    50
Message: Degrees of freedom not zero

--->OC6:--->OC6:--->OC6:--->OC6:Equilibrium result:  13 its,  1.2500E-03 s,      2 cc, GS= -3.8382071E+01 J/mol
3Y Testing if any gridpoint is below the calculated equilibrium
--->OC6:--->OC6:
Overwriting previous results on ./OCoutput_fission_products.OCU
3E allocating workspace:     123330          (   3330,   10000,    2)
 3E saving            3  symbols as texts
 3E used        12286  words out of       123330  for storing static data
 ceqrecsize not implemented          39
 3E Saving an equilibrium record requires     4092       0 words
 3E not storing unused equilibria from:            2
 3E Saving assessment record
 3E No experimental equilibrium range set
 3E allocating assessment head record          48
 3E no coefficients allocated
 3E no work array (assrec%wopt) allocated
Used    16466 words out of   123330,  13.35% for unformatted memory save
Written workspace      65864 bytes unformatted on ./OCoutput_fission_products.OCU
--->OC6:--->OC6:Output on file: ./OCoutput_fission_products.DAT
Output unit reset to screen:    6
--->OC6:--->OC6:
[OC output] ./OCoutput_fission_products.DAT
----------------------------------------

%%%%%%%%%% OC output written: 2026-04-19  21h33

Output for equilibrium:   1, DEFAULT_EQUILIBRIUM          2026.04.19
Conditions .................................................:
  1:T=1428, 2:P=676000, 3:N(CS)=.000119032, 4:N(MO)=.000251315, 5:MU(O)=
    -499086
 Degrees of freedom are   0

Some global data, reference state SER ......................:
T=   1428.00 K (  1154.85 C), P=  6.7600E+05 Pa, V=  1.9639E-06 m3
N=   3.7035E-04 moles, B=   3.9932E-02 g, RT=   1.1873E+04 J/mol
G= -3.83821E+01 J, G/N=-1.0364E+05 J/mol, H= 1.9450E+01 J, S= 4.050E-02 J/K

Some data for components ...................................:
Component name    Moles      Mole-fr  Chem.pot/RT  Activities  Ref.state
CS                1.1903E-04  0.32141 -1.4763E+01  3.8761E-07  SER (default)   
MO                2.5131E-04  0.67859 -5.8707E+00  2.8210E-03  SER (default)   
O                 8.4215E-16  0.00000 -4.2035E+01  5.5521E-19  GAS             

Some data for phases .......................................:
Name                Status Moles      Volume    Form.Units Cmp/FU dGm/RT  Comp:
GAS..................... E  1.183E-04  1.96E-06  1.12E-04    1.06  0.00E+00  X:
 CS     1.00000E+00  O      8.57143E-14  MO     7.71778E-18
Constitution: There are    18 constituents:
 CS           9.42262E-01  MO2          1.67986E-25  MOO2         1.00000E-30
 CS2          5.77383E-02  MOO          9.33619E-27  MOO3         1.00000E-30
 CS2O         9.06615E-14  MO3O9        1.00000E-30  CS2O2        1.00000E-30
 MO           8.16339E-18  MO4O12       1.00000E-30  O2           1.00000E-30
 CSO          1.79678E-18  MO5O15       1.00000E-30  O3           1.00000E-30
 O            3.10021E-25  MO2O6        1.00000E-30  CS2MOO4      1.00000E-30

BCC_A2#1................ E  2.521E-04  0.00E+00  2.52E-04    1.00  0.00E+00  X:
 MO     9.96993E-01  CS     3.00713E-03  O      3.30066E-12


----------------------------------------

[OC parser] Parsed components
  Cs : moles=0.00011903, x=0.32141, mu/RT=-14.763, activity=3.8761e-07, ref=SER (default)
  Mo : moles=0.00025131, x=0.67859, mu/RT=-5.8707, activity=0.002821, ref=SER (default)
  O : moles=8.4215e-16, x=0, mu/RT=-42.035, activity=5.5521e-19, ref=GAS

[OC parser] Parsed phases
  Phase condensed : moles=0.0002521, volume=0
    Elements
      Cs = 7.58097e-07
      Mo = 0.000251342
      O = 8.32096e-16
    Species
      BCC_A2 : moles=0.0002521, volume=0
        Cs = 7.58097e-07
        Mo = 0.000251342
        O = 8.32096e-16
  Phase gas : moles=0.0001183, volume=1.96e-06
    Elements
      Cs = 0.0001183
      Mo = 9.13013e-22
      O = 1.014e-17
    Species
      CS : moles=0.00011147, volume=0
      CS2 : moles=6.83044e-06, volume=0
      CS2MOO4 : moles=1.183e-34, volume=0
      CS2O : moles=1.07253e-17, volume=0
      CS2O2 : moles=1.183e-34, volume=0
      CSO : moles=2.12559e-22, volume=0
      MO : moles=9.65729e-22, volume=0
      MO2 : moles=1.98727e-29, volume=0
      MO2O6 : moles=1.183e-34, volume=0
      MO3O9 : moles=1.183e-34, volume=0
      MO4O12 : moles=1.183e-34, volume=0
      MO5O15 : moles=1.183e-34, volume=0
      MOO : moles=1.10447e-30, volume=0
      MOO2 : moles=1.183e-34, volume=0
      MOO3 : moles=1.183e-34, volume=0
      O : moles=3.66755e-29, volume=0
      O2 : moles=1.183e-34, volume=0
      O3 : moles=1.183e-34, volume=0
      are : moles=0.0021294, volume=0
OpenCalphad attempt for 'matrix' with WARM-START

[OC input] ./OCinput_matrix.OCM
----------------------------------------
r u ./OCoutput_matrix.OCU

set ref o gas * 100000

set c t=1428
set c p=744000
set c n(o)=0.66612
set c n(pu)=0.0932827
set c n(u)=0.240598
c e
c w

save u ./OCoutput_matrix Y

l /out=./OCoutput_matrix.DAT r 1

fin
----------------------------------------

3A unfished preparations for XTDB


Open Calphad (OC) software version   6.106 , linked 2026-04-16
with command line monitor version  73

This program is available with a GNU General Public License.
either version 2 of the License, or any later version.
It includes the General Thermodynamic Package, version GTP-3.31,
Hillert's equilibrium calculation algorithm version HMS-3.0 ,
step/map/plot software version SMP-2.30 using GNUPLOT 5.2 graphics.
Numerical routines are extracted from LAPACK and BLAS and
[...]
REF175          '*** Not set by database or user'
REF176          '*** Not set by database or user'
REF177          '*** Not set by database or user'
REF203          'O1PU1<G> T.C.R.A.S. Class: 6, from SSUB, id to Tbase'
REF204          'O2PU1<G> T.C.R.A.S. Class: 7 PLUTONIUM DIOXIDE <GAS>, from 
                 SSUB, id to Tbase'
REF209          'O1U1<G> T.C.R.A.S Class: 6 Data provided by T.C.R.A.S. in 
                 2000, from SSUB, different of Tbase'
REF210          'O2U1<G> T.C.R.A.S. Class: 6 URANIUM DIOXIDE <GAS>, from 
                 SSUB, slightly different of Tbase'
REF211          'O3U1<G> T.C.R.A.S Class: 6 Data provided by T.C.R.A.S. in 
                 2000, from SSUB, different of Tbase'
REF10           'A T Dinsdale, SGTE Data for Pure Elements, Calphad 15(1991)4 
                 p 317-425; also in NPL Report DMA(A)195 Rev. August 1990'
FOUQ            'P. Fouquet-Metivier et al, Calphad (2022)'
REF412          'C. Gueneau, N. Dupin, B. Sundman, C. Martial, J.-C. Dumas, 
                 S. Gosse, S. Chatain, F. De Bruycker, D. Manara, R.J.M. 
                 Konings, J. Nucl. Mat. 419 (1-3), 145-167 (2011); C-O-Pu-U'
REF37           'M. Kurata, Calphad, 23 (3-4), 305-337 1999'
REF115          '*** Not set by database or user'
REF92           'N. Dupin, Contrat CEA 4000294936/P5B73 Np-Pu Fuelbase, 
                 february REF115'
REF137          '*** Not set by database or user'

--->OC6:--->OC6:--->OC6:--->OC6:--->OC6:--->OC6:--->OC6:--->OC6: 3Y Composition set(s) created:            1
Gridmin:    7483 points   1.68E-02 s and      14 clockcycles, T= 1428.00
 3Y leaving global_gridmin
Phase change iteration:     4  -C1_MO2_AUTO#2
Error  4204, cleaning up and trying harder
If the conditions allow using the global minimizer,  try "CALCULATE CAREFULLY"

Error codes:   4204     0    50
Message: Too many iterations

--->OC6:Gridmin:    7483 points   1.52E-02 s and      14 clockcycles, T= 1428.00
 3Y leaving global_gridmin
Phase change iteration:     4  -C1_MO2_AUTO#2
Error  4204, cleaning up and trying harder
If the conditions allow using the global minimizer,  try "CALCULATE CAREFULLY"

Error codes:   4204     0    50
Message: Too many iterations

--->OC6:
Error codes:   4204     0    50
Message: Too many iterations

--->OC6:Output on file: ./OCoutput_matrix.DAT
 *** No results as no equilibrium calculated!      11C
Output unit reset to screen:    6
--->OC6:--->OC6:
[OC output] ./OCoutput_matrix.DAT
----------------------------------------

%%%%%%%%%% OC output written: 2026-04-19  21h34

Output for equilibrium:   1, DEFAULT_EQUILIBRIUM          2026.04.19

 *** The results below are not a valid equilibrium as last calculation failed

Conditions .................................................:
  1:T=1428, 2:P=7000000, 3:N(O)=0.693186, 4:N(PU)=.05644, 5:N(U)=0.250374
 Degrees of freedom are   0

Some global data, reference state SER ......................:
T=   1428.00 K (  1154.85 C), P=  7.0000E+06 Pa, V=  0.0000E+00 m3
N=   1.0000E+00 moles, B=   8.4462E+01 g, RT=   1.1873E+04 J/mol
G= -4.12215E+05 J, G/N=-4.1222E+05 J/mol, H=-3.1513E+05 J, S= 6.799E+01 J/K

----------------------------------------
Warning: OpenCalphad returned an invalid equilibrium for location 'matrix' using COLD-START.
OpenCalphad attempt for 'matrix' with PRESSURE-SWEEP

[OC input] ./OCinput_matrix.OCM
----------------------------------------
@$ Initialize variables:
r t /home/ecappellari/transparant/opencalphad/data/O-Pu-UPaper o pu u

set ref o gas * 100000

set c t=1428
set c p=7e+06
set c n(o)=0.693186
set c n(pu)=0.05644
set c n(u)=0.250374
c e
set c p=100000
c w
set axis
1
p
100000
7000000


step
normal

set c p=7000000
c e
c w
l /out=./OCoutput_matrix.DAT r 1

fin
----------------------------------------

3A unfished preparations for XTDB


Open Calphad (OC) software version   6.106 , linked 2026-04-16
with command line monitor version  73

This program is available with a GNU General Public License.
either version 2 of the License, or any later version.
It includes the General Thermodynamic Package, version GTP-3.31,
Hillert's equilibrium calculation algorithm version HMS-3.0 ,
step/map/plot software version SMP-2.30 using GNUPLOT 5.2 graphics.
Numerical routines are extracted from LAPACK and BLAS and
the assessment procedure uses LMDIF from ANL.

Linked with OpenMp for parallel execution
 Warning, no environment variable OCHOME and no help file
 Working directory is: /home/ecappellari/transparant/sciantix-official/regression/test_JOG_MOX/point_07_r_2p0mm
--->OC6:--->OC6: 3E Database file extention is: ".tdb"

This database has information to users, please read carefully
Database modified by Pauline Fouquet-Metivier et al, Calphad (2022)
Only for the liquid phase of Pu-O and U-Pu-O systems

 ELEMENT /-   ELECTRON_GAS              0.0000E+00  0.0000E+00  0.0000E+00!

Database has  5 elements: O  PU U  AR N 
Give the elements to select, finish with empty line
Selected  3 elements: O  PU U 
Select elements /no more/:Selected  3 elements: O  PU U 
3E reading database file: /home/ecappellari/transparant/opencalphad/data/O-Pu-UPaper.TDB
 3B insering interaction before existing F

Out of   115 model parameters   108 have been entered


There are    17 bibliographic references
REF161          '*** Not set by database or user'
REF178          '*** Not set by database or user'
REF175          '*** Not set by database or user'
REF176          '*** Not set by database or user'
REF177          '*** Not set by database or user'
REF203          'O1PU1<G> T.C.R.A.S. Class: 6, from SSUB, id to Tbase'
REF204          'O2PU1<G> T.C.R.A.S. Class: 7 PLUTONIUM DIOXIDE <GAS>, from 
                 SSUB, id to Tbase'
REF209          'O1U1<G> T.C.R.A.S Class: 6 Data provided by T.C.R.A.S. in 
                 2000, from SSUB, different of Tbase'
REF210          'O2U1<G> T.C.R.A.S. Class: 6 URANIUM DIOXIDE <GAS>, from 
                 SSUB, slightly different of Tbase'
REF211          'O3U1<G> T.C.R.A.S Class: 6 Data provided by T.C.R.A.S. in 
                 2000, from SSUB, different of Tbase'
REF10           'A T Dinsdale, SGTE Data for Pure Elements, Calphad 15(1991)4 
                 p 317-425; also in NPL Report DMA(A)195 Rev. August 1990'
FOUQ            'P. Fouquet-Metivier et al, Calphad (2022)'
REF412          'C. Gueneau, N. Dupin, B. Sundman, C. Martial, J.-C. Dumas, 
                 S. Gosse, S. Chatain, F. De Bruycker, D. Manara, R.J.M. 
                 Konings, J. Nucl. Mat. 419 (1-3), 145-167 (2011); C-O-Pu-U'
REF37           'M. Kurata, Calphad, 23 (3-4), 305-337 1999'
REF115          '*** Not set by database or user'
REF92           'N. Dupin, Contrat CEA 4000294936/P5B73 Np-Pu Fuelbase, 
                 february REF115'
REF137          '*** Not set by database or user'

--->OC6:--->OC6:--->OC6:--->OC6:--->OC6:--->OC6:--->OC6:--->OC6: 3Y Composition set(s) created:            1
Gridmin:    7483 points   1.62E-02 s and      15 clockcycles, T= 1428.00
 3Y leaving global_gridmin
Phase change iteration:     4  -C1_MO2_AUTO#2
Error  4204, cleaning up and trying harder
If the conditions allow using the global minimizer,  try "CALCULATE CAREFULLY"

Error codes:   4204     0    50
Message: Too many iterations

--->OC6:--->OC6:
Error codes:   4204     0    50
Message: Too many iterations

--->OC6:Axis number /1/: Condition varying along axis:Minimal value /0/: Maximal value /1/: Increment /172500/: --->OC6:--->OC6:Step options? /NORMAL/:  There are            1  start equilibria
 Entering map_startpoint           1
 SMP2A call map_doallines

Line   1 from   1.000000E+05 with: C1_MO2#1 U3O8_S4  
Equilibria calculated     20
Equilibria calculated     40
Terminating line with   46 equilibria at axis limit   7.0000E+06

Line   2 from   1.000000E+05 with: C1_MO2#1 U3O8_S4  
Terminating line with    2 equilibria at axis limit   1.0000E+05

Finished step/map with    48 equilibria in   7.5416E-02 CPU s and      77 cc
--->OC6:--->OC6:--->OC6:Gridmin:    7483 points   2.42E-02 s and      23 clockcycles, T= 1428.00
 3Y leaving global_gridmin
Phase change iteration:     4  -C1_MO2_AUTO#2
Error  4204, cleaning up and trying harder
If the conditions allow using the global minimizer,  try "CALCULATE CAREFULLY"

Error codes:   4204     0    50
Message: Too many iterations

--->OC6:
Error codes:   4204     0    50
Message: Too many iterations

--->OC6:Output on file: ./OCoutput_matrix.DAT
Output unit reset to screen:    6
--->OC6:--->OC6:
[OC output] ./OCoutput_matrix.DAT
----------------------------------------

%%%%%%%%%% OC output written: 2026-04-19  21h34

Output for equilibrium:   1, DEFAULT_EQUILIBRIUM          2026.04.19

 *** The results below are not a valid equilibrium as last calculation failed

Conditions .................................................:
  1:T=1428, 2:P=7000000, 3:N(O)=0.693186, 4:N(PU)=.05644, 5:N(U)=0.250374
 Degrees of freedom are   0

Some global data, reference state SER ......................:
T=   1428.00 K (  1154.85 C), P=  7.0000E+06 Pa, V=  0.0000E+00 m3
N=   1.0000E+00 moles, B=   8.4462E+01 g, RT=   1.1873E+04 J/mol
G= -4.12215E+05 J, G/N=-4.1222E+05 J/mol, H=-3.1513E+05 J, S= 6.799E+01 J/K

Some data for components ...................................:
Component name    Moles      Mole-fr  Chem.pot/RT  Activities  Ref.state
O                 6.9319E-01  0.69319 -5.3559E+00  4.7201E-03  GAS             
PU                5.6440E-02  0.05644 -7.3499E+01  1.2017E-32  SER (default)   
U                 2.5037E-01  0.25037 -7.4910E+01  2.9301E-33  SER (default)   

Some data for phases .......................................:
Name                Status Moles      Volume    Form.Units Cmp/FU dGm/RT  Comp:
C1_MO2#1................ E  8.080E-01  0.00E+00  2.54E-01    3.18  0.00E+00  X:
 O      6.85088E-01  U      2.45064E-01  PU     6.98480E-02

Phase: C1_MO2_AUTO#2 has stable status with net charge:  0.161
U3O8_S4................. E  1.920E-01  0.00E+00  1.75E-02   11.00  0.00E+00  X:
 O      7.27273E-01  U      2.72727E-01  PU     0.00000E+00


 *** The results above are not a valid equilibrium as last calculation failed


----------------------------------------
Warning: OpenCalphad returned a stoichiometric C1_MO2 stabilization failure for location 'matrix' using PRESSURE-SWEEP. Deferring acceptance until all solve attempts are exhausted.
Warning: OpenCalphad returned an invalid equilibrium for location 'matrix' using PRESSURE-SWEEP.
Warning: all OpenCalphad solve attempts failed for location 'matrix'. Accepting deferred stoichiometric C1_MO2 stabilization result.

[OC parser] Parsed components
  O : moles=0.69319, x=0.69319, mu/RT=-5.3559, activity=0.0047201, ref=GAS
  Pu : moles=0.05644, x=0.05644, mu/RT=-73.499, activity=1.2017e-32, ref=SER (default)
  U : moles=0.25037, x=0.25037, mu/RT=-74.91, activity=2.9301e-33, ref=SER (default)

[OC parser] Parsed phases
  Phase condensed : moles=1, volume=0
    Elements
      O = 0.693188
      Pu = 0.0564372
      U = 0.250375
    Species
      C1_MO2 : moles=0.808, volume=0
        O = 0.553551
        Pu = 0.0564372
        U = 0.198012
      U3O8_S4 : moles=0.192, volume=0
        O = 0.139636
        Pu = 0
        U = 0.0523636
OpenCalphad attempt for 'at grain boundary' with WARM-START

[OC input] ./OCinput_fission_products.OCM
----------------------------------------
r u ./OCoutput_fission_products.OCU

set ref o gas * 100000

set c t=1428
set c p=7e+06
set c n(cs)=0.00704408
set c n(mo)=0.0097686
set c n(o)=0.983187
c e
set c n(o)=none
set c mu(o)=-127179

c w

save u ./OCoutput_fission_products Y

l /out=./OCoutput_fission_products.DAT r 1

fin
----------------------------------------

3A unfished preparations for XTDB


Open Calphad (OC) software version   6.106 , linked 2026-04-16
with command line monitor version  73

This program is available with a GNU General Public License.
either version 2 of the License, or any later version.
It includes the General Thermodynamic Package, version GTP-3.31,
Hillert's equilibrium calculation algorithm version HMS-3.0 ,
step/map/plot software version SMP-2.30 using GNUPLOT 5.2 graphics.
Numerical routines are extracted from LAPACK and BLAS and
the assessment procedure uses LMDIF from ANL.

Linked with OpenMp for parallel execution
 Warning, no environment variable OCHOME and no help file
 Working directory is: /home/ecappellari/transparant/sciantix-official/regression/test_JOG_MOX/point_07_r_2p0mm
--->OC6:
Read unformatted file: This is a save file for OC version:     OCF-3.20
Generated:  2026.04.19 21h34

 3E reading unformatted:        16431           0           0
3E Addition type   1, Inden-Hillert magn model for BCC_A2
3E Addition type   1, Inden-Hillert magn model for FCC_A1
3E Addition type   1, Inden-Hillert magn model for HCP_A3
 3E no experimental data
 3E no coefficient values saved
 3E Read assessment record
 No coefficients allocated
--->OC6:--->OC6:--->OC6:--->OC6:--->OC6:--->OC6:--->OC6:--->OC6:--->OC6:
Error codes:   4144     0    50
Message: Degrees of freedom not zero

--->OC6:--->OC6:--->OC6:--->OC6:Equilibrium result:   9 its,  6.8500E-04 s,      1 cc, GS= -1.3743307E+04 J/mol
3Y Testing if any gridpoint is below the calculated equilibrium
--->OC6:--->OC6:
Overwriting previous results on ./OCoutput_fission_products.OCU
3E allocating workspace:     123330          (   3330,   10000,    2)
 3E saving            3  symbols as texts
 3E used        12286  words out of       123330  for storing static data
 ceqrecsize not implemented          39
 3E Saving an equilibrium record requires     4092       0 words
 3E not storing unused equilibria from:            2
 3E Saving assessment record
 3E No experimental equilibrium range set
 3E allocating assessment head record          48
 3E no coefficients allocated
 3E no work array (assrec%wopt) allocated
Used    16466 words out of   123330,  13.35% for unformatted memory save
Written workspace      65864 bytes unformatted on ./OCoutput_fission_products.OCU
--->OC6:--->OC6:Output on file: ./OCoutput_fission_products.DAT
Output unit reset to screen:    6
--->OC6:--->OC6:
[OC output] ./OCoutput_fission_products.DAT
----------------------------------------

%%%%%%%%%% OC output written: 2026-04-19  21h34

Output for equilibrium:   1, DEFAULT_EQUILIBRIUM          2026.04.19
Conditions .................................................:
  1:T=1428, 2:P=7000000, 3:N(CS)=.00704408, 4:N(MO)=.0097686, 5:MU(O)=-127179
 Degrees of freedom are   0

Some global data, reference state SER ......................:
T=   1428.00 K (  1154.85 C), P=  7.0000E+06 Pa, V=  0.0000E+00 m3
N=   4.9641E-02 moles, B=   2.3986E+00 g, RT=   1.1873E+04 J/mol
G= -1.37433E+04 J, G/N=-2.7686E+05 J/mol, H=-8.3153E+03 J, S= 3.801E+00 J/K

Some data for components ...................................:
Component name    Moles      Mole-fr  Chem.pot/RT  Activities  Ref.state
CS                7.0441E-03  0.14190 -3.5810E+01  2.8035E-16  SER (default)   
MO                9.7686E-03  0.19679 -1.7397E+01  2.7844E-08  SER (default)   
O                 3.2828E-02  0.66131 -1.0712E+01  2.2287E-05  GAS             

Some data for phases .......................................:
Name                Status Moles      Volume    Form.Units Cmp/FU dGm/RT  Comp:
LIQUID.................. E  4.964E-02  0.00E+00  9.77E-03    5.08  0.00E+00  X:
 O      6.61311E-01  MO     1.96787E-01  CS     1.41902E-01


----------------------------------------

[OC parser] Parsed components
  Cs : moles=0.0070441, x=0.1419, mu/RT=-35.81, activity=2.8035e-16, ref=SER (default)
  Mo : moles=0.0097686, x=0.19679, mu/RT=-17.397, activity=2.7844e-08, ref=SER (default)
  O : moles=0.032828, x=0.66131, mu/RT=-10.712, activity=2.2287e-05, ref=GAS

[OC parser] Parsed phases
  Phase liquid : moles=0.04964, volume=0
    Elements
      Cs = 0.00704402
      Mo = 0.00976851
      O = 0.0328275
Using current directory.
STOP Au revoir
STOP Au revoir
STOP Au revoir
STOP Au revoir
STOP Au revoir
STOP Au revoir
STOP Au revoir
STOP Au revoir
STOP Au revoir
STOP Au revoir
STOP Au revoir
STOP Au revoir
STOP Au revoir
STOP Au revoir
STOP Au revoir
STOP Au revoir
STOP Au revoir
STOP Au revoir
STOP Au revoir
STOP Au revoir
STOP Au revoir
STOP Au revoir
STOP Au revoir
STOP Au revoir
STOP Au revoir
STOP Au revoir
STOP Au revoir
STOP Au revoir
STOP Au revoir
STOP Au revoir
STOP Au revoir
STOP Au revoir
STOP Au revoir
STOP Au revoir
STOP Au revoir
STOP Au revoir
STOP Au revoir
STOP Au revoir
STOP Au revoir
STOP Au revoir
STOP Au revoir
STOP Au revoir
STOP Au revoir
STOP Au revoir
STOP Au revoir
STOP Au revoir
STOP Au revoir
STOP Au revoir
STOP Au revoir
STOP Au revoir
STOP Au revoir
STOP Au revoir
STOP Au revoir
STOP Au revoir
STOP Au revoir
STOP Au revoir
STOP Au revoir
STOP Au revoir
STOP Au revoir
STOP Au revoir
STOP Au revoir
STOP Au revoir
STOP Au revoir
STOP Au revoir
STOP Au revoir
STOP Au revoir
STOP Au revoir
STOP Au revoir
STOP Au revoir
STOP Au revoir
STOP Au revoir
STOP Au revoir
STOP Au revoir
STOP Au revoir
STOP Au revoir
STOP Au revoir
STOP Au revoir
STOP Au revoir
STOP Au revoir
STOP Au revoir
STOP Au revoir
STOP Au revoir
STOP Au revoir
STOP Au revoir
STOP Au revoir
STOP Au revoir
STOP Au revoir
STOP Au revoir
STOP Au revoir
STOP Au revoir
STOP Au revoir
STOP Au revoir
STOP Au revoir
STOP Au revoir
STOP Au revoir
STOP Au revoir
STOP Au revoir
STOP Au revoir
STOP Au revoir
STOP Au revoir
STOP Au revoir
STOP Au revoir
STOP Au revoir
STOP Au revoir
STOP Au revoir
STOP Au revoir
STOP Au revoir
STOP Au revoir
STOP Au revoir
STOP Au revoir
STOP Au revoir
STOP Au revoir
STOP Au revoir
STOP Au revoir
STOP Au revoir
STOP Au revoir
STOP Au revoir
STOP Au revoir
STOP Au revoir
STOP Au revoir
STOP Au revoir
STOP Au revoir
STOP Au revoir
STOP Au revoir
STOP Au revoir
STOP Au revoir
STOP Au revoir
STOP Au revoir
STOP Au revoir
STOP Au revoir
STOP Au revoir
STOP Au revoir
STOP Au revoir
STOP Au revoir
STOP Au revoir
STOP Au revoir
STOP Au revoir
STOP Au revoir
STOP Au revoir
STOP Au revoir
STOP Au revoir
STOP Au revoir
STOP Au revoir
STOP Au revoir
STOP Au revoir
STOP Au revoir
STOP Au revoir
STOP Au revoir
STOP Au revoir
STOP Au revoir
STOP Au revoir
STOP Au revoir
STOP Au revoir
STOP Au revoir
STOP Au revoir
STOP Au revoir
STOP Au revoir
STOP Au revoir
STOP Au revoir
STOP Au revoir
STOP Au revoir
STOP Au revoir
STOP Au revoir
STOP Au revoir
STOP Au revoir
STOP Au revoir
STOP Au revoir
STOP Au revoir
STOP Au revoir
STOP Au revoir
STOP Au revoir
STOP Au revoir
STOP Au revoir
STOP Au revoir
STOP Au revoir
STOP Au revoir
STOP Au revoir
STOP Au revoir
STOP Au revoir
STOP Au revoir
STOP Au revoir
STOP Au revoir
STOP Au revoir
STOP Au revoir
STOP Au revoir
STOP Au revoir
STOP Au revoir
STOP Au revoir
STOP Au revoir
STOP Au revoir
STOP Au revoir
STOP Au revoir
STOP Au revoir
STOP Au revoir
STOP Au revoir
STOP Au revoir
STOP Au revoir
STOP Au revoir
STOP Au revoir
STOP Au revoir
STOP Au revoir
STOP Au revoir
STOP Au revoir
STOP Au revoir
STOP Au revoir
STOP Au revoir
STOP Au revoir
STOP Au revoir
STOP Au revoir
STOP Au revoir
STOP Au revoir
STOP Au revoir
STOP Au revoir
STOP Au revoir
STOP Au revoir
STOP Au revoir
STOP Au revoir
STOP Au revoir
STOP Au revoir
STOP Au revoir
STOP Au revoir
STOP Au revoir
STOP Au revoir
STOP Au revoir
STOP Au revoir
STOP Au revoir
STOP Au revoir
STOP Au revoir
STOP Au revoir
STOP Au revoir
STOP Au revoir
STOP Au revoir
STOP Au revoir
STOP Au revoir
STOP Au revoir
STOP Au revoir
STOP Au revoir
STOP Au revoir
STOP Au revoir
STOP Au revoir
STOP Au revoir
STOP Au revoir
STOP Au revoir
STOP Au revoir
STOP Au revoir
STOP Au revoir
STOP Au revoir
STOP Au revoir
STOP Au revoir
STOP Au revoir
STOP Au revoir
STOP Au revoir
STOP Au revoir
STOP Au revoir
STOP Au revoir
STOP Au revoir
STOP Au revoir
STOP Au revoir
STOP Au revoir
STOP Au revoir
STOP Au revoir
STOP Au revoir
STOP Au revoir
STOP Au revoir
STOP Au revoir
STOP Au revoir
STOP Au revoir
STOP Au revoir
STOP Au revoir
STOP Au revoir
