Use ./sciantix.x ../input_path/ in the working directory
OpenCalphad attempt for 'matrix' with WARM-START

[OC input] ./OCinput_matrix.OCM
----------------------------------------
@$ Initialize variables:
r t /home/ecappellari/transparant/opencalphad/data/O-Pu-UPaper o pu u

set ref o gas * 100000

set c t=979
set c p=200000
set c n(o)=0.663866
set c n(pu)=0.0963509
set c n(u)=0.239784
c e
c w

save u ./OCoutput_matrix Y

l /out=./OCoutput_matrix.DAT r 1

fin
----------------------------------------

3A unfished preparations for XTDB


Open Calphad (OC) software version   6.106 , linked 2026-04-16
with command line monitor version  73

This program is available with a GNU General Public License.
either version 2 of the License, or any later version.
It includes the General Thermodynamic Package, version GTP-3.31,
Hillert's equilibrium calculation algorithm version HMS-3.0 ,
step/map/plot software version SMP-2.30 using GNUPLOT 5.2 graphics.
Numerical routines are extracted from LAPACK and BLAS and
the assessment procedure uses LMDIF from ANL.

Linked with OpenMp for parallel execution
 Warning, no environment variable OCHOME and no help file
 Working directory is: /home/ecappellari/transparant/sciantix-official/regression/test_JOG_MOX/point_10_r_2p7mm
--->OC6:--->OC6: 3E Database file extention is: ".tdb"

This database has information to users, please read carefully
Database modified by Pauline Fouquet-Metivier et al, Calphad (2022)
Only for the liquid phase of Pu-O and U-Pu-O systems

 ELEMENT /-   ELECTRON_GAS              0.0000E+00  0.0000E+00  0.0000E+00!

Database has  5 elements: O  PU U  AR N 
Give the elements to select, finish with empty line
Selected  3 elements: O  PU U 
Select elements /no more/:Selected  3 elements: O  PU U 
3E reading database file: /home/ecappellari/transparant/opencalphad/data/O-Pu-UPaper.TDB
 3B insering interaction before existing F

Out of   115 model parameters   108 have been entered


There are    17 bibliographic references
REF161          '*** Not set by database or user'
REF178          '*** Not set by database or user'
REF175          '*** Not set by database or user'
REF176          '*** Not set by database or user'
REF177          '*** Not set by database or user'
REF203          'O1PU1<G> T.C.R.A.S. Class: 6, from SSUB, id to Tbase'
REF204          'O2PU1<G> T.C.R.A.S. Class: 7 PLUTONIUM DIOXIDE <GAS>, from 
                 SSUB, id to Tbase'
REF209          'O1U1<G> T.C.R.A.S Class: 6 Data provided by T.C.R.A.S. in 
                 2000, from SSUB, different of Tbase'
REF210          'O2U1<G> T.C.R.A.S. Class: 6 URANIUM DIOXIDE <GAS>, from 
                 SSUB, slightly different of Tbase'
REF211          'O3U1<G> T.C.R.A.S Class: 6 Data provided by T.C.R.A.S. in 
                 2000, from SSUB, different of Tbase'
REF10           'A T Dinsdale, SGTE Data for Pure Elements, Calphad 15(1991)4 
                 p 317-425; also in NPL Report DMA(A)195 Rev. August 1990'
FOUQ            'P. Fouquet-Metivier et al, Calphad (2022)'
REF412          'C. Gueneau, N. Dupin, B. Sundman, C. Martial, J.-C. Dumas, 
                 S. Gosse, S. Chatain, F. De Bruycker, D. Manara, R.J.M. 
                 Konings, J. Nucl. Mat. 419 (1-3), 145-167 (2011); C-O-Pu-U'
REF37           'M. Kurata, Calphad, 23 (3-4), 305-337 1999'
REF115          '*** Not set by database or user'
REF92           'N. Dupin, Contrat CEA 4000294936/P5B73 Np-Pu Fuelbase, 
                 february REF115'
REF137          '*** Not set by database or user'

--->OC6:--->OC6:--->OC6:--->OC6:--->OC6:--->OC6:--->OC6:--->OC6:3Y Removed  2 gridpoints by merging
Gridmin:    7483 points   1.65E-02 s and      14 clockcycles, T=  979.00
 3Y leaving global_gridmin
Equilibrium result:  14 its,  1.7465E-02 s,     18 cc, GS= -3.9925153E+05 J/mol
--->OC6:Equilibrium result:   9 its,  5.0800E-04 s,      0 cc, GS= -3.9925153E+05 J/mol
3Y Testing if any gridpoint is below the calculated equilibrium
--->OC6:--->OC6:3E allocating workspace:     122160          (   2160,   10000,    2)
 3E saving            3  symbols as texts
 3E used        12112  words out of       122160  for storing static data
 ceqrecsize not implemented          25
 3E Saving an equilibrium record requires     2613       0 words
 3E not storing unused equilibria from:            2
 3E Saving assessment record
 3E No experimental equilibrium range set
 3E allocating assessment head record          48
 3E no coefficients allocated
 3E no work array (assrec%wopt) allocated
Used    14813 words out of   122160,  12.13% for unformatted memory save
Written workspace      59252 bytes unformatted on ./OCoutput_matrix.OCU
--->OC6:--->OC6:Output on file: ./OCoutput_matrix.DAT
Output unit reset to screen:    6
--->OC6:--->OC6:
[OC output] ./OCoutput_matrix.DAT
----------------------------------------

%%%%%%%%%% OC output written: 2026-04-19  21h34

Output for equilibrium:   1, DEFAULT_EQUILIBRIUM          2026.04.19
Conditions .................................................:
  1:T=979, 2:P=200000, 3:N(O)=0.663866, 4:N(PU)=.0963509, 5:N(U)=0.239784
 Degrees of freedom are   0

Some global data, reference state SER ......................:
T=    979.00 K (   705.85 C), P=  2.0000E+05 Pa, V=  0.0000E+00 m3
N=   1.0000E+00 moles, B=   9.1212E+01 g, RT=   8.1399E+03 J/mol
G= -3.99252E+05 J, G/N=-3.9925E+05 J/mol, H=-3.4203E+05 J, S= 5.845E+01 J/K

Some data for components ...................................:
Component name    Moles      Mole-fr  Chem.pot/RT  Activities  Ref.state
O                 6.6387E-01  0.66387 -4.0648E+01  2.2234E-18  GAS             
PU                9.6351E-02  0.09635 -3.9398E+01  7.7527E-18  SER (default)   
U                 2.3978E-01  0.23978 -4.0451E+01  2.7069E-18  SER (default)   

Some data for phases .......................................:
Name                Status Moles      Volume    Form.Units Cmp/FU dGm/RT  Comp:
C1_MO2.................. E  1.000E+00  0.00E+00  3.36E-01    2.97  0.00E+00  X:
 O      6.63865E-01  U      2.39784E-01  PU     9.63508E-02


----------------------------------------

[OC parser] Parsed components
  O : moles=0.66387, x=0.66387, mu/RT=-40.648, activity=2.2234e-18, ref=GAS
  Pu : moles=0.096351, x=0.09635, mu/RT=-39.398, activity=7.7527e-18, ref=SER (default)
  U : moles=0.23978, x=0.23978, mu/RT=-40.451, activity=2.7069e-18, ref=SER (default)

[OC parser] Parsed phases
  Phase condensed : moles=1, volume=0
    Elements
      O = 0.663865
      Pu = 0.0963508
      U = 0.239784
    Species
      C1_MO2 : moles=1, volume=0
        O = 0.663865
        Pu = 0.0963508
        U = 0.239784
OpenCalphad attempt for 'matrix' with WARM-START

[OC input] ./OCinput_matrix.OCM
----------------------------------------
r u ./OCoutput_matrix.OCU

set ref o gas * 100000

set c t=979
set c p=268000
set c n(o)=0.664146
set c n(pu)=0.0959685
set c n(u)=0.239885
c e
c w

save u ./OCoutput_matrix Y

l /out=./OCoutput_matrix.DAT r 1

fin
----------------------------------------

3A unfished preparations for XTDB


Open Calphad (OC) software version   6.106 , linked 2026-04-16
with command line monitor version  73

This program is available with a GNU General Public License.
either version 2 of the License, or any later version.
It includes the General Thermodynamic Package, version GTP-3.31,
Hillert's equilibrium calculation algorithm version HMS-3.0 ,
step/map/plot software version SMP-2.30 using GNUPLOT 5.2 graphics.
Numerical routines are extracted from LAPACK and BLAS and
the assessment procedure uses LMDIF from ANL.

Linked with OpenMp for parallel execution
 Warning, no environment variable OCHOME and no help file
 Working directory is: /home/ecappellari/transparant/sciantix-official/regression/test_JOG_MOX/point_10_r_2p7mm
--->OC6:
Read unformatted file: This is a save file for OC version:     OCF-3.20
Generated:  2026.04.19 21h34

 3E reading unformatted:        14778           0           0
3E Addition type   1, Inden-Hillert magn model for BCC_A2
3E Addition type   1, Inden-Hillert magn model for FCC_A1
 3E no experimental data
 3E no coefficient values saved
 3E Read assessment record
 No coefficients allocated
--->OC6:--->OC6:--->OC6:--->OC6:--->OC6:--->OC6:--->OC6:--->OC6:--->OC6:3Y Removed  2 gridpoints by merging
Gridmin:    7483 points   1.75E-02 s and      15 clockcycles, T=  979.00
 3Y leaving global_gridmin
Equilibrium result:  14 its,  1.8530E-02 s,     18 cc, GS= -3.9928346E+05 J/mol
--->OC6:Equilibrium result:   9 its,  5.5200E-04 s,      1 cc, GS= -3.9928346E+05 J/mol
3Y Testing if any gridpoint is below the calculated equilibrium
--->OC6:--->OC6:
Overwriting previous results on ./OCoutput_matrix.OCU
3E allocating workspace:     122160          (   2160,   10000,    2)
 3E saving            3  symbols as texts
 3E used        12112  words out of       122160  for storing static data
 ceqrecsize not implemented          25
 3E Saving an equilibrium record requires     2613       0 words
 3E not storing unused equilibria from:            2
 3E Saving assessment record
 3E No experimental equilibrium range set
 3E allocating assessment head record          48
 3E no coefficients allocated
 3E no work array (assrec%wopt) allocated
Used    14813 words out of   122160,  12.13% for unformatted memory save
Written workspace      59252 bytes unformatted on ./OCoutput_matrix.OCU
--->OC6:--->OC6:Output on file: ./OCoutput_matrix.DAT
Output unit reset to screen:    6
--->OC6:--->OC6:
[OC output] ./OCoutput_matrix.DAT
----------------------------------------

%%%%%%%%%% OC output written: 2026-04-19  21h34

Output for equilibrium:   1, DEFAULT_EQUILIBRIUM          2026.04.19
Conditions .................................................:
  1:T=979, 2:P=268000, 3:N(O)=0.664146, 4:N(PU)=.0959685, 5:N(U)=0.239885
 Degrees of freedom are   0

Some global data, reference state SER ......................:
T=    979.00 K (   705.85 C), P=  2.6800E+05 Pa, V=  0.0000E+00 m3
N=   1.0000E+00 moles, B=   9.1148E+01 g, RT=   8.1399E+03 J/mol
G= -3.99283E+05 J, G/N=-3.9928E+05 J/mol, H=-3.4214E+05 J, S= 5.837E+01 J/K

Some data for components ...................................:
Component name    Moles      Mole-fr  Chem.pot/RT  Activities  Ref.state
O                 6.6415E-01  0.66415 -4.0569E+01  2.4054E-18  GAS             
PU                9.5968E-02  0.09597 -3.9842E+01  4.9764E-18  SER (default)   
U                 2.3989E-01  0.23989 -4.0896E+01  1.7342E-18  SER (default)   

Some data for phases .......................................:
Name                Status Moles      Volume    Form.Units Cmp/FU dGm/RT  Comp:
C1_MO2.................. E  1.000E+00  0.00E+00  3.36E-01    2.98  0.00E+00  X:
 O      6.64146E-01  U      2.39885E-01  PU     9.59685E-02


----------------------------------------

[OC parser] Parsed components
  O : moles=0.66415, x=0.66415, mu/RT=-40.569, activity=2.4054e-18, ref=GAS
  Pu : moles=0.095968, x=0.09597, mu/RT=-39.842, activity=4.9764e-18, ref=SER (default)
  U : moles=0.23989, x=0.23989, mu/RT=-40.896, activity=1.7342e-18, ref=SER (default)

[OC parser] Parsed phases
  Phase condensed : moles=1, volume=0
    Elements
      O = 0.664146
      Pu = 0.0959685
      U = 0.239885
    Species
      C1_MO2 : moles=1, volume=0
        O = 0.664146
        Pu = 0.0959685
        U = 0.239885
OpenCalphad attempt for 'matrix' with WARM-START

[OC input] ./OCinput_matrix.OCM
----------------------------------------
r u ./OCoutput_matrix.OCU

set ref o gas * 100000

set c t=979
set c p=336000
set c n(o)=0.664428
set c n(pu)=0.0955858
set c n(u)=0.239987
c e
c w

save u ./OCoutput_matrix Y

l /out=./OCoutput_matrix.DAT r 1

fin
----------------------------------------

3A unfished preparations for XTDB


Open Calphad (OC) software version   6.106 , linked 2026-04-16
with command line monitor version  73

This program is available with a GNU General Public License.
either version 2 of the License, or any later version.
It includes the General Thermodynamic Package, version GTP-3.31,
Hillert's equilibrium calculation algorithm version HMS-3.0 ,
step/map/plot software version SMP-2.30 using GNUPLOT 5.2 graphics.
Numerical routines are extracted from LAPACK and BLAS and
the assessment procedure uses LMDIF from ANL.

Linked with OpenMp for parallel execution
 Warning, no environment variable OCHOME and no help file
 Working directory is: /home/ecappellari/transparant/sciantix-official/regression/test_JOG_MOX/point_10_r_2p7mm
--->OC6:
Read unformatted file: This is a save file for OC version:     OCF-3.20
Generated:  2026.04.19 21h34

 3E reading unformatted:        14778           0           0
3E Addition type   1, Inden-Hillert magn model for BCC_A2
3E Addition type   1, Inden-Hillert magn model for FCC_A1
 3E no experimental data
 3E no coefficient values saved
 3E Read assessment record
 No coefficients allocated
--->OC6:--->OC6:--->OC6:--->OC6:--->OC6:--->OC6:--->OC6:--->OC6:--->OC6:3Y Removed  2 gridpoints by merging
Gridmin:    7483 points   1.63E-02 s and      14 clockcycles, T=  979.00
 3Y leaving global_gridmin
Equilibrium result:  14 its,  1.7308E-02 s,     18 cc, GS= -3.9931486E+05 J/mol
--->OC6:Equilibrium result:   9 its,  5.0500E-04 s,      0 cc, GS= -3.9931486E+05 J/mol
3Y Testing if any gridpoint is below the calculated equilibrium
--->OC6:--->OC6:
Overwriting previous results on ./OCoutput_matrix.OCU
3E allocating workspace:     122160          (   2160,   10000,    2)
 3E saving            3  symbols as texts
 3E used        12112  words out of       122160  for storing static data
 ceqrecsize not implemented          25
 3E Saving an equilibrium record requires     2613       0 words
 3E not storing unused equilibria from:            2
 3E Saving assessment record
 3E No experimental equilibrium range set
 3E allocating assessment head record          48
 3E no coefficients allocated
 3E no work array (assrec%wopt) allocated
Used    14813 words out of   122160,  12.13% for unformatted memory save
Written workspace      59252 bytes unformatted on ./OCoutput_matrix.OCU
--->OC6:--->OC6:Output on file: ./OCoutput_matrix.DAT
Output unit reset to screen:    6
--->OC6:--->OC6:
[OC output] ./OCoutput_matrix.DAT
----------------------------------------

%%%%%%%%%% OC output written: 2026-04-19  21h34

Output for equilibrium:   1, DEFAULT_EQUILIBRIUM          2026.04.19
Conditions .................................................:
  1:T=979, 2:P=336000, 3:N(O)=0.664428, 4:N(PU)=.0955858, 5:N(U)=0.239987
 Degrees of freedom are   0

Some global data, reference state SER ......................:
T=    979.00 K (   705.85 C), P=  3.3600E+05 Pa, V=  0.0000E+00 m3
N=   1.0000E+00 moles, B=   9.1083E+01 g, RT=   8.1399E+03 J/mol
G= -3.99315E+05 J, G/N=-3.9931E+05 J/mol, H=-3.4225E+05 J, S= 5.829E+01 J/K

Some data for components ...................................:
Component name    Moles      Mole-fr  Chem.pot/RT  Activities  Ref.state
O                 6.6443E-01  0.66443 -4.0423E+01  2.7819E-18  GAS             
PU                9.5586E-02  0.09559 -4.0352E+01  2.9878E-18  SER (default)   
U                 2.3999E-01  0.23999 -4.1408E+01  1.0393E-18  SER (default)   

Some data for phases .......................................:
Name                Status Moles      Volume    Form.Units Cmp/FU dGm/RT  Comp:
C1_MO2.................. E  1.000E+00  0.00E+00  3.36E-01    2.98  0.00E+00  X:
 O      6.64427E-01  U      2.39987E-01  PU     9.55857E-02


----------------------------------------

[OC parser] Parsed components
  O : moles=0.66443, x=0.66443, mu/RT=-40.423, activity=2.7819e-18, ref=GAS
  Pu : moles=0.095586, x=0.09559, mu/RT=-40.352, activity=2.9878e-18, ref=SER (default)
  U : moles=0.23999, x=0.23999, mu/RT=-41.408, activity=1.0393e-18, ref=SER (default)

[OC parser] Parsed phases
  Phase condensed : moles=1, volume=0
    Elements
      O = 0.664427
      Pu = 0.0955857
      U = 0.239987
    Species
      C1_MO2 : moles=1, volume=0
        O = 0.664427
        Pu = 0.0955857
        U = 0.239987
OpenCalphad attempt for 'at grain boundary' with WARM-START

[OC input] ./OCinput_fission_products.OCM
----------------------------------------
@$ Initialize variables:
r t /home/ecappellari/transparant/opencalphad/data/CsMoO_TAFID_2021_Anna cs mo o

set ref o gas * 100000

set c t=979
set c p=336000
set c n(cs)=1.25568e-05
set c n(mo)=1.6667e-05
set c n(o)=0.999971
c e
set c n(o)=none
set c mu(o)=-658062

c w

save u ./OCoutput_fission_products Y

l /out=./OCoutput_fission_products.DAT r 1

fin
----------------------------------------

3A unfished preparations for XTDB


Open Calphad (OC) software version   6.106 , linked 2026-04-16
with command line monitor version  73

This program is available with a GNU General Public License.
either version 2 of the License, or any later version.
It includes the General Thermodynamic Package, version GTP-3.31,
Hillert's equilibrium calculation algorithm version HMS-3.0 ,
step/map/plot software version SMP-2.30 using GNUPLOT 5.2 graphics.
Numerical routines are extracted from LAPACK and BLAS and
the assessment procedure uses LMDIF from ANL.

Linked with OpenMp for parallel execution
 Warning, no environment variable OCHOME and no help file
 Working directory is: /home/ecappellari/transparant/sciantix-official/regression/test_JOG_MOX/point_10_r_2p7mm
--->OC6:--->OC6: 3E Database file extention is: ".tdb"
Database has  3 elements: CS MO O 
Give the elements to select, finish with empty line
Selected  3 elements: CS MO O 
Select elements /no more/:Selected  3 elements: CS MO O 
3E reading database file: /home/ecappellari/transparant/opencalphad/data/CsMoO_TAFID_2021_Anna.TDB

Out of    82 model parameters    82 have been entered


There are     1 bibliographic references
REF0            '*** Not set by database or user'

--->OC6:--->OC6:--->OC6:--->OC6:--->OC6:--->OC6:--->OC6:--->OC6:Gridmin:    9683 points   2.33E-02 s and      22 clockcycles, T=  979.00
 3Y leaving global_gridmin
Phase change iteration:    14  +LIQUID
Phase change iteration:    15  +LIQUID
Phase change iteration:    16  +LIQUID
Phase change iteration:    17  +LIQUID
MM Too many stable phases at iter  17, phase   8 replaced by   2, T=   979.00
Phase change iteration:    21  -CS2MOO4_S2
Equilibrium result:  49 its,  2.7711E-02 s,     27 cc, GS= -1.0296416E+05 J/mol
--->OC6:--->OC6:--->OC6:--->OC6:Phase change iteration:     4  -GAS
Phase change iteration:     8  +BCC_A2
Phase change iteration:    12  -BCC_A2
Phase change iteration:    13  +BCC_A2
Phase change iteration:    17  +CS7O1
Phase change iteration:    18  +CS7O1
Phase change iteration:    19  +CS7O1
Phase change iteration:    20  +CS7O1
MM Too many stable phases at iter  20, phase   3 replaced by  18, T=   979.00
Phase change iteration:    24  -CS7O1
Phase change iteration:    28  +BCC_A2
Phase change iteration:    32  +CS7O1
MM Removing phase:   18  18#1
Phase change iteration:    34  +CS4O
Phase change iteration:    36  +CS4O
Phase change iteration:    37  +FCC_A1
MM Too many stable phases at iter  37, phase   3 replaced by  24, T=   979.00
Phase change iteration:    41  +MC_ETA
Phase change iteration:    42  +MC_ETA
Phase change iteration:    43  +MC_ETA
Phase change iteration:    44  +MC_ETA
MM Too many stable phases at iter  44, phase  24 replaced by  26, T=   979.00
Phase change iteration:    48  +BCC_A2
Phase change iteration:    49  +BCC_A2
MM Removing phase:    3   3#1
Phase change iteration:    61  +HCP_A3
Phase change iteration:    62  +HCP_A3
MM Too many stable phases at iter  62, phase  26 replaced by  25, T=   979.00
Phase change iteration:    66  -LIQUID
Phase change iteration:    68  +LIQUID
MM Restoring phase:      3    3  BCC_A2
MM Restoring phase:     18   18  CS7O1
Equilibrium result:  76 its,  7.8930E-03 s,      8 cc, GS= -1.8481044E+00 J/mol
3Y Testing if any gridpoint is below the calculated equilibrium
 3Y Equilibrium wrong, gridtest found BCC_A2                  
 3Y recalculate with:           38           2          39
 MM recalculating with this phase as stable 2:           38
MM Calculate with activity condition
Phase change iteration:     4  -BCC_A2_CHKD#2
Phase change iteration:     8  -HCP_A3
Phase change iteration:    12  +GAS
Phase change iteration:    16  -GAS
Phase change iteration:    20  +BCC_A2_CHKD#2
Phase change iteration:    24  +BCC_A2#1
Phase change iteration:    25  +BCC_A2#1
Phase change iteration:    26  +BCC_A2#1
Phase change iteration:    27  +BCC_A2#1
MM Too many stable phases at iter  27, phase   4 replaced by   3, T=   979.00
Phase change iteration:    31  -BCC_A2#1
Phase change iteration:    33  +BCC_A2#1
Phase change iteration:    37  -BCC_A2#1
Phase change iteration:    41  +BCC_A2_CHKD#2
MM Removing phase:    3   3#1
Phase change iteration:    46  +FCC_A1
Phase change iteration:    47  +FCC_A1
Phase change iteration:    48  +FCC_A1
Phase change iteration:    49  +FCC_A1
MM Too many stable phases at iter  49, phase   4 replaced by  25, T=   979.00
Phase change iteration:    53  -LIQUID
Phase change iteration:    57  +BCC_A2_CHKD#2
Phase change iteration:    61  +LIQUID
Phase change iteration:    62  +LIQUID
Phase change iteration:    63  +LIQUID
Phase change iteration:    64  +LIQUID
MM Too many stable phases at iter  64, phase   4 replaced by   2, T=   979.00
Phase change iteration:    68  +BCC_A2_CHKD#2
Phase change iteration:    69  -LIQUID
Phase change iteration:    73  +BCC_A2_CHKD#2
Phase change iteration:    77  +LIQUID
MM Removing phase:    2   2#1
Phase change iteration:    79  +HCP_A3
Phase change iteration:    80  +HCP_A3
Phase change iteration:    81  +HCP_A3
MM Too many stable phases at iter  81, phase  25 replaced by  26, T=   979.00
MM Restoring phase:      2    2  LIQUID       6.0466E-01
MM Restoring phase:      3    3  BCC_A2#1       2.7764E-02
 MM warning, a restored phase wants to be stable:           3

Error codes:   4363     0    50
Message: No equilibrium, a restored phase should be stable

--->OC6:--->OC6:3E allocating workspace:     123330          (   3330,   10000,    2)
 3E saving            3  symbols as texts
 3E used        12286  words out of       123330  for storing static data
 ceqrecsize not implemented          39
 3E Saving an equilibrium record requires     4092       0 words
 3E not storing unused equilibria from:            2
 3E Saving assessment record
 3E No experimental equilibrium range set
 3E allocating assessment head record          48
 3E no coefficients allocated
 3E no work array (assrec%wopt) allocated
Used    16466 words out of   123330,  13.35% for unformatted memory save
Written workspace      65864 bytes unformatted on ./OCoutput_fission_products.OCU
--->OC6:--->OC6:Output on file: ./OCoutput_fission_products.DAT

Output unit reset to screen:    6
--->OC6:--->OC6:
[OC output] ./OCoutput_fission_products.DAT
----------------------------------------

%%%%%%%%%% OC output written: 2026-04-19  21h34

Output for equilibrium:   1, DEFAULT_EQUILIBRIUM          2026.04.19

 *** The results below are not a valid equilibrium as last calculation failed

Conditions .................................................:
  1:T=979, 2:P=336000, 3:N(CS)=1.25568E-05, 4:N(MO)=1.6667E-05, 5:MU(O)=
    -658062
 Degrees of freedom are   0

Some global data, reference state SER ......................:
T=    979.00 K (   705.85 C), P=  3.3600E+05 Pa, V=  0.0000E+00 m3
N=   2.9224E-05 moles, B=   3.2680E-03 g, RT=   8.1399E+03 J/mol
G= -1.90651E+00 J, G/N=-6.5238E+04 J/mol, H= 6.1369E-01 J, S= 2.574E-03 J/K

Some data for components ...................................:
Component name    Moles      Mole-fr  Chem.pot/RT  Activities  Ref.state
CS                1.2557E-05  0.42968 -1.2080E+01  5.6692E-06  SER (default)   
MO                1.6667E-05  0.57032 -4.9515E+00  7.0730E-03  SER (default)   
O                 5.1039E-17  0.00000 -8.0844E+01  7.7611E-36  GAS             

Some data for phases .......................................:
Name                Status Moles      Volume    Form.Units Cmp/FU dGm/RT  Comp:
LIQUID.................. E  0.000E+00  0.00E+00  0.00E+00    1.00  6.04E-01  X:
 CS     9.99743E-01  MO     2.56665E-04  O      1.21012E-11

BCC_A2#1................ E  0.000E+00  0.00E+00  0.00E+00    1.00  2.78E-02  X:
 CS     9.97859E-01  MO     2.14139E-03  O      3.30066E-12

BCC_A2_CHKD#2........... E  1.271E-05  0.00E+00  1.27E-05    1.00  0.00E+00  X:
 MO     9.97733E-01  CS     2.26744E-03  O      3.30132E-12

HCP_A3.................. E  1.652E-05  0.00E+00  1.65E-05    1.00  0.00E+00  X:
 CS     7.58570E-01  MO     2.41430E-01  O      5.50055E-13


 *** There are phase(s) which would like to be stable:
   LIQUID  6.0420E-01   BCC_A2  2.7764E-02
 *** The results above are not a valid equilibrium as last calculation failed


----------------------------------------
Warning: OpenCalphad returned an invalid equilibrium for location 'at grain boundary' using WARM-START.
Captured fallback N(O)=5.1039e-17 from invalid MU(O) output for location 'at grain boundary'.
OpenCalphad attempt for 'at grain boundary' with COLD-START

[OC input] ./OCinput_fission_products.OCM
----------------------------------------
@$ Initialize variables:
r t /home/ecappellari/transparant/opencalphad/data/CsMoO_TAFID_2021_Anna cs mo o

set ref o gas * 100000

set c t=979
set c p=336000
set c n(cs)=1.25568e-05
set c n(mo)=1.6667e-05
set c n(o)=0.999971
c e
set c n(o)=none
set c mu(o)=-658062

c e
c w
l /out=./OCoutput_fission_products.DAT r 1

fin
----------------------------------------

3A unfished preparations for XTDB


Open Calphad (OC) software version   6.106 , linked 2026-04-16
with command line monitor version  73

This program is available with a GNU General Public License.
either version 2 of the License, or any later version.
It includes the General Thermodynamic Package, version GTP-3.31,
Hillert's equilibrium calculation algorithm version HMS-3.0 ,
step/map/plot software version SMP-2.30 using GNUPLOT 5.2 graphics.
Numerical routines are extracted from LAPACK and BLAS and
the assessment procedure uses LMDIF from ANL.

Linked with OpenMp for parallel execution
 Warning, no environment variable OCHOME and no help file
 Working directory is: /home/ecappellari/transparant/sciantix-official/regression/test_JOG_MOX/point_10_r_2p7mm
--->OC6:--->OC6: 3E Database file extention is: ".tdb"
Database has  3 elements: CS MO O 
Give the elements to select, finish with empty line
Selected  3 elements: CS MO O 
Select elements /no more/:Selected  3 elements: CS MO O 
3E reading database file: /home/ecappellari/transparant/opencalphad/data/CsMoO_TAFID_2021_Anna.TDB

Out of    82 model parameters    82 have been entered


There are     1 bibliographic references
REF0            '*** Not set by database or user'

--->OC6:--->OC6:--->OC6:--->OC6:--->OC6:--->OC6:--->OC6:--->OC6:Gridmin:    9683 points   1.94E-02 s and      19 clockcycles, T=  979.00
 3Y leaving global_gridmin
Phase change iteration:    14  +LIQUID
Phase change iteration:    15  +LIQUID
Phase change iteration:    16  +LIQUID
Phase change iteration:    17  +LIQUID
MM Too many stable phases at iter  17, phase   8 replaced by   2, T=   979.00
Phase change iteration:    21  -CS2MOO4_S2
Equilibrium result:  49 its,  2.2336E-02 s,     23 cc, GS= -1.0296416E+05 J/mol
--->OC6:--->OC6:--->OC6:--->OC6:Warning: global minimizer cannot be used for the current set of conditions
Phase change iteration:     4  -GAS
Phase change iteration:     8  +BCC_A2
Phase change iteration:    12  -BCC_A2
Phase change iteration:    13  +BCC_A2
Phase change iteration:    17  +CS7O1
Phase change iteration:    18  +CS7O1
Phase change iteration:    19  +CS7O1
Phase change iteration:    20  +CS7O1
MM Too many stable phases at iter  20, phase   3 replaced by  18, T=   979.00
Phase change iteration:    24  -CS7O1
Phase change iteration:    28  +BCC_A2
Phase change iteration:    32  +CS7O1
MM Removing phase:   18  18#1
Phase change iteration:    34  +CS4O
Phase change iteration:    36  +CS4O
Phase change iteration:    37  +FCC_A1
MM Too many stable phases at iter  37, phase   3 replaced by  24, T=   979.00
Phase change iteration:    41  +MC_ETA
Phase change iteration:    42  +MC_ETA
Phase change iteration:    43  +MC_ETA
Phase change iteration:    44  +MC_ETA
MM Too many stable phases at iter  44, phase  24 replaced by  26, T=   979.00
Phase change iteration:    48  +BCC_A2
Phase change iteration:    49  +BCC_A2
MM Removing phase:    3   3#1
Phase change iteration:    61  +HCP_A3
Phase change iteration:    62  +HCP_A3
MM Too many stable phases at iter  62, phase  26 replaced by  25, T=   979.00
Phase change iteration:    66  -LIQUID
Phase change iteration:    68  +LIQUID
MM Restoring phase:      3    3  BCC_A2
MM Restoring phase:     18   18  CS7O1
Equilibrium result:  76 its,  4.9690E-03 s,      5 cc, GS= -1.8481044E+00 J/mol
3Y Testing if any gridpoint is below the calculated equilibrium
 3Y Equilibrium wrong, gridtest found BCC_A2                  
 3Y recalculate with:           38           2          39
 MM recalculating with this phase as stable 2:           38
Warning: global minimizer cannot be used for the current set of conditions
MM Calculate with activity condition
Phase change iteration:     4  -BCC_A2_CHKD#2
Phase change iteration:     8  -HCP_A3
Phase change iteration:    12  +GAS
Phase change iteration:    16  -GAS
Phase change iteration:    20  +BCC_A2_CHKD#2
Phase change iteration:    24  +BCC_A2#1
Phase change iteration:    25  +BCC_A2#1
Phase change iteration:    26  +BCC_A2#1
Phase change iteration:    27  +BCC_A2#1
MM Too many stable phases at iter  27, phase   4 replaced by   3, T=   979.00
Phase change iteration:    31  -BCC_A2#1
Phase change iteration:    33  +BCC_A2#1
Phase change iteration:    37  -BCC_A2#1
Phase change iteration:    41  +BCC_A2_CHKD#2
MM Removing phase:    3   3#1
Phase change iteration:    46  +FCC_A1
Phase change iteration:    47  +FCC_A1
Phase change iteration:    48  +FCC_A1
Phase change iteration:    49  +FCC_A1
MM Too many stable phases at iter  49, phase   4 replaced by  25, T=   979.00
Phase change iteration:    53  -LIQUID
Phase change iteration:    57  +BCC_A2_CHKD#2
Phase change iteration:    61  +LIQUID
Phase change iteration:    62  +LIQUID
Phase change iteration:    63  +LIQUID
Phase change iteration:    64  +LIQUID
MM Too many stable phases at iter  64, phase   4 replaced by   2, T=   979.00
Phase change iteration:    68  +BCC_A2_CHKD#2
Phase change iteration:    69  -LIQUID
Phase change iteration:    73  +BCC_A2_CHKD#2
Phase change iteration:    77  +LIQUID
MM Removing phase:    2   2#1
Phase change iteration:    79  +HCP_A3
Phase change iteration:    80  +HCP_A3
Phase change iteration:    81  +HCP_A3
MM Too many stable phases at iter  81, phase  25 replaced by  26, T=   979.00
MM Restoring phase:      2    2  LIQUID       6.0466E-01
MM Restoring phase:      3    3  BCC_A2#1       2.7764E-02
 MM warning, a restored phase wants to be stable:           3

Error codes:   4363     0    50
Message: No equilibrium, a restored phase should be stable

--->OC6:Phase change iteration:     4  +LIQUID
Phase change iteration:     5  +LIQUID
Phase change iteration:     6  +LIQUID
Phase change iteration:     7  +LIQUID
MM Too many stable phases at iter   7, phase   4 replaced by   2, T=   979.00
Phase change iteration:    11  +BCC_A2_CHKD#2
Phase change iteration:    12  +BCC_A2_CHKD#2
Phase change iteration:    13  +BCC_A2_CHKD#2
Phase change iteration:    14  +BCC_A2_CHKD#2
MM Too many stable phases at iter  14, phase  26 replaced by   4, T=   979.00
Equilibrium result:  21 its,  1.4740E-03 s,      2 cc, GS= -1.9682126E+00 J/mol
3Y Testing if any gridpoint is below the calculated equilibrium
--->OC6:Output on file: ./OCoutput_fission_products.DAT
Output unit reset to screen:    6
--->OC6:--->OC6:
[OC output] ./OCoutput_fission_products.DAT
----------------------------------------

%%%%%%%%%% OC output written: 2026-04-19  21h34

Output for equilibrium:   1, DEFAULT_EQUILIBRIUM          2026.04.19
Conditions .................................................:
  1:T=979, 2:P=336000, 3:N(CS)=1.25568E-05, 4:N(MO)=1.6667E-05, 5:MU(O)=
    -658062
 Degrees of freedom are   0

Some global data, reference state SER ......................:
T=    979.00 K (   705.85 C), P=  3.3600E+05 Pa, V=  0.0000E+00 m3
N=   2.9224E-05 moles, B=   3.2680E-03 g, RT=   8.1399E+03 J/mol
G= -1.96821E+00 J, G/N=-6.7350E+04 J/mol, H= 5.8737E-01 J, S= 2.610E-03 J/K

Some data for components ...................................:
Component name    Moles      Mole-fr  Chem.pot/RT  Activities  Ref.state
CS                1.2557E-05  0.42968 -1.2685E+01  3.0959E-06  SER (default)   
MO                1.6667E-05  0.57032 -4.9505E+00  7.0802E-03  SER (default)   
O                 2.0680E-16  0.00000 -8.0844E+01  7.7611E-36  GAS             

Some data for phases .......................................:
Name                Status Moles      Volume    Form.Units Cmp/FU dGm/RT  Comp:
LIQUID.................. E  1.254E-05  0.00E+00  1.25E-05    1.00  0.00E+00  X:
 CS     9.99926E-01  MO     7.40234E-05  O      1.21012E-11

BCC_A2_CHKD#2........... E  1.669E-05  0.00E+00  1.67E-05    1.00  0.00E+00  X:
 MO     9.98778E-01  CS     1.22244E-03  O      3.30132E-12


----------------------------------------

[OC parser] Parsed components
  Cs : moles=1.2557e-05, x=0.42968, mu/RT=-12.685, activity=3.0959e-06, ref=SER (default)
  Mo : moles=1.6667e-05, x=0.57032, mu/RT=-4.9505, activity=0.0070802, ref=SER (default)
  O : moles=2.068e-16, x=0, mu/RT=-80.844, activity=7.7611e-36, ref=GAS

[OC parser] Parsed phases
  Phase condensed : moles=1.669e-05, volume=0
    Elements
      Cs = 2.04025e-08
      Mo = 1.66696e-05
      O = 5.5099e-17
    Species
      BCC_A2 : moles=1.669e-05, volume=0
        Cs = 2.04025e-08
        Mo = 1.66696e-05
        O = 5.5099e-17
  Phase liquid : moles=1.254e-05, volume=0
    Elements
      Cs = 1.25391e-05
      Mo = 9.28253e-10
      O = 1.51749e-16
OpenCalphad attempt for 'matrix' with WARM-START

[OC input] ./OCinput_matrix.OCM
----------------------------------------
r u ./OCoutput_matrix.OCU

set ref o gas * 100000

set c t=979
set c p=404000
set c n(o)=0.664709
set c n(pu)=0.0952027
set c n(u)=0.240088
c e
c w

save u ./OCoutput_matrix Y

l /out=./OCoutput_matrix.DAT r 1

fin
----------------------------------------

3A unfished preparations for XTDB


Open Calphad (OC) software version   6.106 , linked 2026-04-16
with command line monitor version  73

This program is available with a GNU General Public License.
either version 2 of the License, or any later version.
It includes the General Thermodynamic Package, version GTP-3.31,
Hillert's equilibrium calculation algorithm version HMS-3.0 ,
step/map/plot software version SMP-2.30 using GNUPLOT 5.2 graphics.
Numerical routines are extracted from LAPACK and BLAS and
the assessment procedure uses LMDIF from ANL.

Linked with OpenMp for parallel execution
 Warning, no environment variable OCHOME and no help file
 Working directory is: /home/ecappellari/transparant/sciantix-official/regression/test_JOG_MOX/point_10_r_2p7mm
--->OC6:
Read unformatted file: This is a save file for OC version:     OCF-3.20
Generated:  2026.04.19 21h34

 3E reading unformatted:        14778           0           0
3E Addition type   1, Inden-Hillert magn model for BCC_A2
3E Addition type   1, Inden-Hillert magn model for FCC_A1
 3E no experimental data
 3E no coefficient values saved
 3E Read assessment record
 No coefficients allocated
--->OC6:--->OC6:--->OC6:--->OC6:--->OC6:--->OC6:--->OC6:--->OC6:--->OC6:3Y Removed  2 gridpoints by merging
Gridmin:    7483 points   1.75E-02 s and      15 clockcycles, T=  979.00
 3Y leaving global_gridmin
Equilibrium result:  14 its,  1.8442E-02 s,     18 cc, GS= -3.9934346E+05 J/mol
--->OC6:Equilibrium result:   9 its,  5.0500E-04 s,      1 cc, GS= -3.9934346E+05 J/mol
3Y Testing if any gridpoint is below the calculated equilibrium
--->OC6:--->OC6:
Overwriting previous results on ./OCoutput_matrix.OCU
3E allocating workspace:     122160          (   2160,   10000,    2)
 3E saving            3  symbols as texts
 3E used        12112  words out of       122160  for storing static data
 ceqrecsize not implemented          25
 3E Saving an equilibrium record requires     2613       0 words
 3E not storing unused equilibria from:            2
 3E Saving assessment record
 3E No experimental equilibrium range set
 3E allocating assessment head record          48
 3E no coefficients allocated
 3E no work array (assrec%wopt) allocated
Used    14813 words out of   122160,  12.13% for unformatted memory save
Written workspace      59252 bytes unformatted on ./OCoutput_matrix.OCU
--->OC6:--->OC6:Output on file: ./OCoutput_matrix.DAT
Output unit reset to screen:    6
--->OC6:--->OC6:
[OC output] ./OCoutput_matrix.DAT
----------------------------------------

%%%%%%%%%% OC output written: 2026-04-19  21h34

Output for equilibrium:   1, DEFAULT_EQUILIBRIUM          2026.04.19
Conditions .................................................:
  1:T=979, 2:P=404000, 3:N(O)=0.664709, 4:N(PU)=.0952027, 5:N(U)=0.240088
 Degrees of freedom are   0

Some global data, reference state SER ......................:
T=    979.00 K (   705.85 C), P=  4.0400E+05 Pa, V=  0.0000E+00 m3
N=   1.0000E+00 moles, B=   9.1018E+01 g, RT=   8.1399E+03 J/mol
G= -3.99343E+05 J, G/N=-3.9934E+05 J/mol, H=-3.4236E+05 J, S= 5.820E+01 J/K

Some data for components ...................................:
Component name    Moles      Mole-fr  Chem.pot/RT  Activities  Ref.state
O                 6.6471E-01  0.66471 -4.0214E+01  3.4283E-18  GAS             
PU                9.5203E-02  0.09520 -4.0947E+01  1.6476E-18  SER (default)   
U                 2.4009E-01  0.24009 -4.2005E+01  5.7206E-19  SER (default)   

Some data for phases .......................................:
Name                Status Moles      Volume    Form.Units Cmp/FU dGm/RT  Comp:
C1_MO2.................. E  1.000E+00  0.00E+00  3.35E-01    2.98  0.00E+00  X:
 O      6.64709E-01  U      2.40088E-01  PU     9.52027E-02


----------------------------------------

[OC parser] Parsed components
  O : moles=0.66471, x=0.66471, mu/RT=-40.214, activity=3.4283e-18, ref=GAS
  Pu : moles=0.095203, x=0.0952, mu/RT=-40.947, activity=1.6476e-18, ref=SER (default)
  U : moles=0.24009, x=0.24009, mu/RT=-42.005, activity=5.7206e-19, ref=SER (default)

[OC parser] Parsed phases
  Phase condensed : moles=1, volume=0
    Elements
      O = 0.664709
      Pu = 0.0952027
      U = 0.240088
    Species
      C1_MO2 : moles=1, volume=0
        O = 0.664709
        Pu = 0.0952027
        U = 0.240088
OpenCalphad attempt for 'at grain boundary' with WARM-START

[OC input] ./OCinput_fission_products.OCM
----------------------------------------
r u ./OCoutput_fission_products.OCU

set ref o gas * 100000

set c t=979
set c p=404000
set c n(cs)=2.16849e-05
set c n(mo)=2.89639e-05
set c n(o)=0.999949
c e
set c n(o)=none
set c mu(o)=-654660

c w

save u ./OCoutput_fission_products Y

l /out=./OCoutput_fission_products.DAT r 1

fin
----------------------------------------

3A unfished preparations for XTDB


Open Calphad (OC) software version   6.106 , linked 2026-04-16
with command line monitor version  73

This program is available with a GNU General Public License.
either version 2 of the License, or any later version.
It includes the General Thermodynamic Package, version GTP-3.31,
Hillert's equilibrium calculation algorithm version HMS-3.0 ,
step/map/plot software version SMP-2.30 using GNUPLOT 5.2 graphics.
Numerical routines are extracted from LAPACK and BLAS and
the assessment procedure uses LMDIF from ANL.

Linked with OpenMp for parallel execution
 Warning, no environment variable OCHOME and no help file
 Working directory is: /home/ecappellari/transparant/sciantix-official/regression/test_JOG_MOX/point_10_r_2p7mm
--->OC6:
Read unformatted file: This is a save file for OC version:     OCF-3.20
Generated:  2026.04.19 21h34

 3E reading unformatted:        16431           0           0
3E Addition type   1, Inden-Hillert magn model for BCC_A2
3E Addition type   1, Inden-Hillert magn model for FCC_A1
3E Addition type   1, Inden-Hillert magn model for HCP_A3
 3E no experimental data
 3E no coefficient values saved
 3E Read assessment record
 No coefficients allocated
--->OC6:--->OC6:--->OC6:--->OC6:--->OC6:--->OC6:--->OC6:--->OC6:--->OC6:
Error codes:   4144     0    50
Message: Degrees of freedom not zero

--->OC6:--->OC6:--->OC6:--->OC6:Phase change iteration:     4  +LIQUID
Phase change iteration:     5  +LIQUID
Phase change iteration:     6  +LIQUID
Phase change iteration:     7  +LIQUID
MM Too many stable phases at iter   7, phase   4 replaced by   2, T=   979.00
Phase change iteration:    11  +BCC_A2_CHKD#2
Phase change iteration:    12  +BCC_A2_CHKD#2
Phase change iteration:    13  +BCC_A2_CHKD#2
Phase change iteration:    14  +BCC_A2_CHKD#2
MM Too many stable phases at iter  14, phase  26 replaced by   4, T=   979.00
Equilibrium result:  21 its,  1.5860E-03 s,      1 cc, GS= -3.4062845E+00 J/mol
3Y Testing if any gridpoint is below the calculated equilibrium
--->OC6:--->OC6:
Overwriting previous results on ./OCoutput_fission_products.OCU
3E allocating workspace:     123330          (   3330,   10000,    2)
 3E saving            3  symbols as texts
 3E used        12286  words out of       123330  for storing static data
 ceqrecsize not implemented          39
 3E Saving an equilibrium record requires     4092       0 words
 3E not storing unused equilibria from:            2
 3E Saving assessment record
 3E No experimental equilibrium range set
 3E allocating assessment head record          48
 3E no coefficients allocated
 3E no work array (assrec%wopt) allocated
Used    16466 words out of   123330,  13.35% for unformatted memory save
Written workspace      65864 bytes unformatted on ./OCoutput_fission_products.OCU
--->OC6:--->OC6:Output on file: ./OCoutput_fission_products.DAT
Output unit reset to screen:    6
--->OC6:--->OC6:
[OC output] ./OCoutput_fission_products.DAT
----------------------------------------

%%%%%%%%%% OC output written: 2026-04-19  21h34

Output for equilibrium:   1, DEFAULT_EQUILIBRIUM          2026.04.19
Conditions .................................................:
  1:T=979, 2:P=404000, 3:N(CS)=2.16849E-05, 4:N(MO)=2.89639E-05, 5:MU(O)=
    -654660
 Degrees of freedom are   0

Some global data, reference state SER ......................:
T=    979.00 K (   705.85 C), P=  4.0400E+05 Pa, V=  0.0000E+00 m3
N=   5.0649E-05 moles, B=   5.6609E-03 g, RT=   8.1399E+03 J/mol
G= -3.40628E+00 J, G/N=-6.7253E+04 J/mol, H= 1.0176E+00 J, S= 4.519E-03 J/K

Some data for components ...................................:
Component name    Moles      Mole-fr  Chem.pot/RT  Activities  Ref.state
CS                2.1685E-05  0.42814 -1.2685E+01  3.0959E-06  SER (default)   
MO                2.8964E-05  0.57186 -4.9505E+00  7.0802E-03  SER (default)   
O                 3.5773E-16  0.00000 -8.0426E+01  1.1788E-35  GAS             

Some data for phases .......................................:
Name                Status Moles      Volume    Form.Units Cmp/FU dGm/RT  Comp:
LIQUID.................. E  2.165E-05  0.00E+00  2.16E-05    1.00  0.00E+00  X:
 CS     9.99926E-01  MO     7.40208E-05  O      1.21012E-11

BCC_A2_CHKD#2........... E  2.900E-05  0.00E+00  2.90E-05    1.00  0.00E+00  X:
 MO     9.98778E-01  CS     1.22244E-03  O      3.30132E-12


----------------------------------------

[OC parser] Parsed components
  Cs : moles=2.1685e-05, x=0.42814, mu/RT=-12.685, activity=3.0959e-06, ref=SER (default)
  Mo : moles=2.8964e-05, x=0.57186, mu/RT=-4.9505, activity=0.0070802, ref=SER (default)
  O : moles=3.5773e-16, x=0, mu/RT=-80.426, activity=1.1788e-35, ref=GAS

[OC parser] Parsed phases
  Phase condensed : moles=2.9e-05, volume=0
    Elements
      Cs = 3.54508e-08
      Mo = 2.89646e-05
      O = 9.57383e-17
    Species
      BCC_A2 : moles=2.9e-05, volume=0
        Cs = 3.54508e-08
        Mo = 2.89646e-05
        O = 9.57383e-17
  Phase liquid : moles=2.165e-05, volume=0
    Elements
      Cs = 2.16484e-05
      Mo = 1.60255e-09
      O = 2.61991e-16
OpenCalphad attempt for 'matrix' with WARM-START

[OC input] ./OCinput_matrix.OCM
----------------------------------------
r u ./OCoutput_matrix.OCU

set ref o gas * 100000

set c t=979
set c p=472000
set c n(o)=0.664991
set c n(pu)=0.0948194
set c n(u)=0.24019
c e
c w

save u ./OCoutput_matrix Y

l /out=./OCoutput_matrix.DAT r 1

fin
----------------------------------------

3A unfished preparations for XTDB


Open Calphad (OC) software version   6.106 , linked 2026-04-16
with command line monitor version  73

This program is available with a GNU General Public License.
either version 2 of the License, or any later version.
It includes the General Thermodynamic Package, version GTP-3.31,
Hillert's equilibrium calculation algorithm version HMS-3.0 ,
step/map/plot software version SMP-2.30 using GNUPLOT 5.2 graphics.
Numerical routines are extracted from LAPACK and BLAS and
the assessment procedure uses LMDIF from ANL.

Linked with OpenMp for parallel execution
 Warning, no environment variable OCHOME and no help file
 Working directory is: /home/ecappellari/transparant/sciantix-official/regression/test_JOG_MOX/point_10_r_2p7mm
--->OC6:
Read unformatted file: This is a save file for OC version:     OCF-3.20
Generated:  2026.04.19 21h34

 3E reading unformatted:        14778           0           0
3E Addition type   1, Inden-Hillert magn model for BCC_A2
3E Addition type   1, Inden-Hillert magn model for FCC_A1
 3E no experimental data
 3E no coefficient values saved
 3E Read assessment record
 No coefficients allocated
--->OC6:--->OC6:--->OC6:--->OC6:--->OC6:--->OC6:--->OC6:--->OC6:--->OC6:3Y Removed  2 gridpoints by merging
Gridmin:    7483 points   1.87E-02 s and      15 clockcycles, T=  979.00
 3Y leaving global_gridmin
Equilibrium result:  14 its,  1.9912E-02 s,     20 cc, GS= -3.9937053E+05 J/mol
--->OC6:Equilibrium result:   9 its,  8.0300E-04 s,      1 cc, GS= -3.9937053E+05 J/mol
3Y Testing if any gridpoint is below the calculated equilibrium
--->OC6:--->OC6:
Overwriting previous results on ./OCoutput_matrix.OCU
3E allocating workspace:     122160          (   2160,   10000,    2)
 3E saving            3  symbols as texts
 3E used        12112  words out of       122160  for storing static data
 ceqrecsize not implemented          25
 3E Saving an equilibrium record requires     2612       0 words
 3E not storing unused equilibria from:            2
 3E Saving assessment record
 3E No experimental equilibrium range set
 3E allocating assessment head record          48
 3E no coefficients allocated
 3E no work array (assrec%wopt) allocated
Used    14812 words out of   122160,  12.13% for unformatted memory save
Written workspace      59248 bytes unformatted on ./OCoutput_matrix.OCU
--->OC6:--->OC6:Output on file: ./OCoutput_matrix.DAT
Output unit reset to screen:    6
--->OC6:--->OC6:
[OC output] ./OCoutput_matrix.DAT
----------------------------------------

%%%%%%%%%% OC output written: 2026-04-19  21h34

Output for equilibrium:   1, DEFAULT_EQUILIBRIUM          2026.04.19
Conditions .................................................:
  1:T=979, 2:P=472000, 3:N(O)=0.664991, 4:N(PU)=.0948194, 5:N(U)=0.24019
 Degrees of freedom are   0

Some global data, reference state SER ......................:
T=    979.00 K (   705.85 C), P=  4.7200E+05 Pa, V=  0.0000E+00 m3
N=   1.0000E+00 moles, B=   9.0953E+01 g, RT=   8.1399E+03 J/mol
G= -3.99371E+05 J, G/N=-3.9937E+05 J/mol, H=-3.4248E+05 J, S= 5.811E+01 J/K

Some data for components ...................................:
Component name    Moles      Mole-fr  Chem.pot/RT  Activities  Ref.state
O                 6.6499E-01  0.66499 -3.9937E+01  4.5234E-18  GAS             
PU                9.4819E-02  0.09482 -4.1650E+01  8.1590E-19  SER (default)   
U                 2.4019E-01  0.24019 -4.2710E+01  2.8273E-19  SER (default)   

Some data for phases .......................................:
Name                Status Moles      Volume    Form.Units Cmp/FU dGm/RT  Comp:
C1_MO2.................. E  1.000E+00  0.00E+00  3.35E-01    2.98  0.00E+00  X:
 O      6.64991E-01  U      2.40190E-01  PU     9.48194E-02


----------------------------------------

[OC parser] Parsed components
  O : moles=0.66499, x=0.66499, mu/RT=-39.937, activity=4.5234e-18, ref=GAS
  Pu : moles=0.094819, x=0.09482, mu/RT=-41.65, activity=8.159e-19, ref=SER (default)
  U : moles=0.24019, x=0.24019, mu/RT=-42.71, activity=2.8273e-19, ref=SER (default)

[OC parser] Parsed phases
  Phase condensed : moles=1, volume=0
    Elements
      O = 0.664991
      Pu = 0.0948194
      U = 0.24019
    Species
      C1_MO2 : moles=1, volume=0
        O = 0.664991
        Pu = 0.0948194
        U = 0.24019
OpenCalphad attempt for 'at grain boundary' with WARM-START

[OC input] ./OCinput_fission_products.OCM
----------------------------------------
r u ./OCoutput_fission_products.OCU

set ref o gas * 100000

set c t=979
set c p=472000
set c n(cs)=3.21096e-05
set c n(mo)=4.32531e-05
set c n(o)=0.999925
c e
set c n(o)=none
set c mu(o)=-650150

c w

save u ./OCoutput_fission_products Y

l /out=./OCoutput_fission_products.DAT r 1

fin
----------------------------------------

3A unfished preparations for XTDB


Open Calphad (OC) software version   6.106 , linked 2026-04-16
with command line monitor version  73

This program is available with a GNU General Public License.
either version 2 of the License, or any later version.
It includes the General Thermodynamic Package, version GTP-3.31,
Hillert's equilibrium calculation algorithm version HMS-3.0 ,
step/map/plot software version SMP-2.30 using GNUPLOT 5.2 graphics.
Numerical routines are extracted from LAPACK and BLAS and
the assessment procedure uses LMDIF from ANL.

Linked with OpenMp for parallel execution
 Warning, no environment variable OCHOME and no help file
 Working directory is: /home/ecappellari/transparant/sciantix-official/regression/test_JOG_MOX/point_10_r_2p7mm
--->OC6:
Read unformatted file: This is a save file for OC version:     OCF-3.20
Generated:  2026.04.19 21h34

 3E reading unformatted:        16431           0           0
3E Addition type   1, Inden-Hillert magn model for BCC_A2
3E Addition type   1, Inden-Hillert magn model for FCC_A1
3E Addition type   1, Inden-Hillert magn model for HCP_A3
 3E no experimental data
 3E no coefficient values saved
 3E Read assessment record
 No coefficients allocated
--->OC6:--->OC6:--->OC6:--->OC6:--->OC6:--->OC6:--->OC6:--->OC6:--->OC6:
Error codes:   4144     0    50
Message: Degrees of freedom not zero

--->OC6:--->OC6:--->OC6:--->OC6:Equilibrium result:   9 its,  6.9400E-04 s,      1 cc, GS= -5.0585184E+00 J/mol
3Y Testing if any gridpoint is below the calculated equilibrium
--->OC6:--->OC6:
Overwriting previous results on ./OCoutput_fission_products.OCU
3E allocating workspace:     123330          (   3330,   10000,    2)
 3E saving            3  symbols as texts
 3E used        12286  words out of       123330  for storing static data
 ceqrecsize not implemented          39
 3E Saving an equilibrium record requires     4092       0 words
 3E not storing unused equilibria from:            2
 3E Saving assessment record
 3E No experimental equilibrium range set
 3E allocating assessment head record          48
 3E no coefficients allocated
 3E no work array (assrec%wopt) allocated
Used    16466 words out of   123330,  13.35% for unformatted memory save
Written workspace      65864 bytes unformatted on ./OCoutput_fission_products.OCU
--->OC6:--->OC6:Output on file: ./OCoutput_fission_products.DAT
Output unit reset to screen:    6
--->OC6:--->OC6:
[OC output] ./OCoutput_fission_products.DAT
----------------------------------------

%%%%%%%%%% OC output written: 2026-04-19  21h34

Output for equilibrium:   1, DEFAULT_EQUILIBRIUM          2026.04.19
Conditions .................................................:
  1:T=979, 2:P=472000, 3:N(CS)=3.21096E-05, 4:N(MO)=4.32531E-05, 5:MU(O)=
    -650150
 Degrees of freedom are   0

Some global data, reference state SER ......................:
T=    979.00 K (   705.85 C), P=  4.7200E+05 Pa, V=  0.0000E+00 m3
N=   7.5363E-05 moles, B=   8.4174E-03 g, RT=   8.1399E+03 J/mol
G= -5.05852E+00 J, G/N=-6.7122E+04 J/mol, H= 1.5135E+00 J, S= 6.713E-03 J/K

Some data for components ...................................:
Component name    Moles      Mole-fr  Chem.pot/RT  Activities  Ref.state
CS                3.2110E-05  0.42607 -1.2685E+01  3.0959E-06  SER (default)   
MO                4.3253E-05  0.57393 -4.9505E+00  7.0802E-03  SER (default)   
O                 5.3091E-16  0.00000 -7.9872E+01  2.0514E-35  GAS             

Some data for phases .......................................:
Name                Status Moles      Volume    Form.Units Cmp/FU dGm/RT  Comp:
LIQUID.................. E  3.206E-05  0.00E+00  3.21E-05    1.00  0.00E+00  X:
 CS     9.99926E-01  MO     7.37675E-05  O      1.21012E-11

BCC_A2_CHKD#2........... E  4.330E-05  0.00E+00  4.33E-05    1.00  0.00E+00  X:
 MO     9.98778E-01  CS     1.22244E-03  O      3.30132E-12


----------------------------------------

[OC parser] Parsed components
  Cs : moles=3.211e-05, x=0.42607, mu/RT=-12.685, activity=3.0959e-06, ref=SER (default)
  Mo : moles=4.3253e-05, x=0.57393, mu/RT=-4.9505, activity=0.0070802, ref=SER (default)
  O : moles=5.3091e-16, x=0, mu/RT=-79.872, activity=2.0514e-35, ref=GAS

[OC parser] Parsed phases
  Phase condensed : moles=4.33e-05, volume=0
    Elements
      Cs = 5.29317e-08
      Mo = 4.32471e-05
      O = 1.42947e-16
    Species
      BCC_A2 : moles=4.33e-05, volume=0
        Cs = 5.29317e-08
        Mo = 4.32471e-05
        O = 1.42947e-16
  Phase liquid : moles=3.206e-05, volume=0
    Elements
      Cs = 3.20576e-05
      Mo = 2.36499e-09
      O = 3.87964e-16
OpenCalphad attempt for 'matrix' with WARM-START

[OC input] ./OCinput_matrix.OCM
----------------------------------------
r u ./OCoutput_matrix.OCU

set ref o gas * 100000

set c t=979
set c p=540000
set c n(o)=0.665273
set c n(pu)=0.0944357
set c n(u)=0.240292
c e
c w

save u ./OCoutput_matrix Y

l /out=./OCoutput_matrix.DAT r 1

fin
----------------------------------------

3A unfished preparations for XTDB


Open Calphad (OC) software version   6.106 , linked 2026-04-16
with command line monitor version  73

This program is available with a GNU General Public License.
either version 2 of the License, or any later version.
It includes the General Thermodynamic Package, version GTP-3.31,
Hillert's equilibrium calculation algorithm version HMS-3.0 ,
step/map/plot software version SMP-2.30 using GNUPLOT 5.2 graphics.
Numerical routines are extracted from LAPACK and BLAS and
the assessment procedure uses LMDIF from ANL.

Linked with OpenMp for parallel execution
 Warning, no environment variable OCHOME and no help file
 Working directory is: /home/ecappellari/transparant/sciantix-official/regression/test_JOG_MOX/point_10_r_2p7mm
--->OC6:
Read unformatted file: This is a save file for OC version:     OCF-3.20
Generated:  2026.04.19 21h34

 3E reading unformatted:        14777           0           0
3E Addition type   1, Inden-Hillert magn model for BCC_A2
3E Addition type   1, Inden-Hillert magn model for FCC_A1
 3E no experimental data
 3E no coefficient values saved
 3E Read assessment record
 No coefficients allocated
--->OC6:--->OC6:--->OC6:--->OC6:--->OC6:--->OC6:--->OC6:--->OC6:--->OC6:3Y Removed  2 gridpoints by merging
Gridmin:    7483 points   1.64E-02 s and      14 clockcycles, T=  979.00
 3Y leaving global_gridmin
Equilibrium result:  14 its,  1.7369E-02 s,     17 cc, GS= -3.9939481E+05 J/mol
--->OC6:Equilibrium result:   9 its,  5.3900E-04 s,      1 cc, GS= -3.9939481E+05 J/mol
3Y Testing if any gridpoint is below the calculated equilibrium
--->OC6:--->OC6:
Overwriting previous results on ./OCoutput_matrix.OCU
3E allocating workspace:     122160          (   2160,   10000,    2)
 3E saving            3  symbols as texts
 3E used        12112  words out of       122160  for storing static data
 ceqrecsize not implemented          25
 3E Saving an equilibrium record requires     2613       0 words
 3E not storing unused equilibria from:            2
 3E Saving assessment record
 3E No experimental equilibrium range set
 3E allocating assessment head record          48
 3E no coefficients allocated
 3E no work array (assrec%wopt) allocated
Used    14813 words out of   122160,  12.13% for unformatted memory save
Written workspace      59252 bytes unformatted on ./OCoutput_matrix.OCU
--->OC6:--->OC6:Output on file: ./OCoutput_matrix.DAT
Output unit reset to screen:    6
--->OC6:--->OC6:
[OC output] ./OCoutput_matrix.DAT
----------------------------------------

%%%%%%%%%% OC output written: 2026-04-19  21h34

Output for equilibrium:   1, DEFAULT_EQUILIBRIUM          2026.04.19
Conditions .................................................:
  1:T=979, 2:P=540000, 3:N(O)=0.665273, 4:N(PU)=.0944357, 5:N(U)=0.240292
 Degrees of freedom are   0

Some global data, reference state SER ......................:
T=    979.00 K (   705.85 C), P=  5.4000E+05 Pa, V=  0.0000E+00 m3
N=   1.0000E+00 moles, B=   9.0888E+01 g, RT=   8.1399E+03 J/mol
G= -3.99395E+05 J, G/N=-3.9939E+05 J/mol, H=-3.4259E+05 J, S= 5.803E+01 J/K

Some data for components ...................................:
Component name    Moles      Mole-fr  Chem.pot/RT  Activities  Ref.state
O                 6.6527E-01  0.66527 -3.9577E+01  6.4822E-18  GAS             
PU                9.4436E-02  0.09444 -4.2497E+01  3.4987E-19  SER (default)   
U                 2.4029E-01  0.24029 -4.3559E+01  1.2097E-19  SER (default)   

Some data for phases .......................................:
Name                Status Moles      Volume    Form.Units Cmp/FU dGm/RT  Comp:
C1_MO2.................. E  1.000E+00  0.00E+00  3.35E-01    2.99  0.00E+00  X:
 O      6.65273E-01  U      2.40292E-01  PU     9.44356E-02


----------------------------------------

[OC parser] Parsed components
  O : moles=0.66527, x=0.66527, mu/RT=-39.577, activity=6.4822e-18, ref=GAS
  Pu : moles=0.094436, x=0.09444, mu/RT=-42.497, activity=3.4987e-19, ref=SER (default)
  U : moles=0.24029, x=0.24029, mu/RT=-43.559, activity=1.2097e-19, ref=SER (default)

[OC parser] Parsed phases
  Phase condensed : moles=1, volume=0
    Elements
      O = 0.665273
      Pu = 0.0944356
      U = 0.240292
    Species
      C1_MO2 : moles=1, volume=0
        O = 0.665273
        Pu = 0.0944356
        U = 0.240292
OpenCalphad attempt for 'at grain boundary' with WARM-START

[OC input] ./OCinput_fission_products.OCM
----------------------------------------
r u ./OCoutput_fission_products.OCU

set ref o gas * 100000

set c t=979
set c p=540000
set c n(cs)=4.40922e-05
set c n(mo)=5.92734e-05
set c n(o)=0.999897
c e
set c n(o)=none
set c mu(o)=-644290

c w

save u ./OCoutput_fission_products Y

l /out=./OCoutput_fission_products.DAT r 1

fin
----------------------------------------

3A unfished preparations for XTDB


Open Calphad (OC) software version   6.106 , linked 2026-04-16
with command line monitor version  73

This program is available with a GNU General Public License.
either version 2 of the License, or any later version.
It includes the General Thermodynamic Package, version GTP-3.31,
Hillert's equilibrium calculation algorithm version HMS-3.0 ,
step/map/plot software version SMP-2.30 using GNUPLOT 5.2 graphics.
Numerical routines are extracted from LAPACK and BLAS and
the assessment procedure uses LMDIF from ANL.

Linked with OpenMp for parallel execution
 Warning, no environment variable OCHOME and no help file
 Working directory is: /home/ecappellari/transparant/sciantix-official/regression/test_JOG_MOX/point_10_r_2p7mm
--->OC6:
Read unformatted file: This is a save file for OC version:     OCF-3.20
Generated:  2026.04.19 21h34

 3E reading unformatted:        16431           0           0
3E Addition type   1, Inden-Hillert magn model for BCC_A2
3E Addition type   1, Inden-Hillert magn model for FCC_A1
3E Addition type   1, Inden-Hillert magn model for HCP_A3
 3E no experimental data
 3E no coefficient values saved
 3E Read assessment record
 No coefficients allocated
--->OC6:--->OC6:--->OC6:--->OC6:--->OC6:--->OC6:--->OC6:--->OC6:--->OC6:
Error codes:   4144     0    50
Message: Degrees of freedom not zero

--->OC6:--->OC6:--->OC6:--->OC6:Equilibrium result:   9 its,  1.0410E-03 s,      1 cc, GS= -6.9413785E+00 J/mol
3Y Testing if any gridpoint is below the calculated equilibrium
--->OC6:--->OC6:
Overwriting previous results on ./OCoutput_fission_products.OCU
3E allocating workspace:     123330          (   3330,   10000,    2)
 3E saving            3  symbols as texts
 3E used        12286  words out of       123330  for storing static data
 ceqrecsize not implemented          39
 3E Saving an equilibrium record requires     4092       0 words
 3E not storing unused equilibria from:            2
 3E Saving assessment record
 3E No experimental equilibrium range set
 3E allocating assessment head record          48
 3E no coefficients allocated
 3E no work array (assrec%wopt) allocated
Used    16466 words out of   123330,  13.35% for unformatted memory save
Written workspace      65864 bytes unformatted on ./OCoutput_fission_products.OCU
--->OC6:--->OC6:Output on file: ./OCoutput_fission_products.DAT
Output unit reset to screen:    6
--->OC6:--->OC6:
[OC output] ./OCoutput_fission_products.DAT
----------------------------------------

%%%%%%%%%% OC output written: 2026-04-19  21h34

Output for equilibrium:   1, DEFAULT_EQUILIBRIUM          2026.04.19
Conditions .................................................:
  1:T=979, 2:P=540000, 3:N(CS)=4.40922E-05, 4:N(MO)=5.92734E-05, 5:MU(O)=
    -644290
 Degrees of freedom are   0

Some global data, reference state SER ......................:
T=    979.00 K (   705.85 C), P=  5.4000E+05 Pa, V=  0.0000E+00 m3
N=   1.0337E-04 moles, B=   1.1547E-02 g, RT=   8.1399E+03 J/mol
G= -6.94138E+00 J, G/N=-6.7154E+04 J/mol, H= 2.0761E+00 J, S= 9.211E-03 J/K

Some data for components ...................................:
Component name    Moles      Mole-fr  Chem.pot/RT  Activities  Ref.state
CS                4.4092E-05  0.42657 -1.2685E+01  3.0959E-06  SER (default)   
MO                5.9273E-05  0.57343 -4.9505E+00  7.0802E-03  SER (default)   
O                 7.2864E-16  0.00000 -7.9152E+01  4.2142E-35  GAS             

Some data for phases .......................................:
Name                Status Moles      Volume    Form.Units Cmp/FU dGm/RT  Comp:
LIQUID.................. E  4.402E-05  0.00E+00  4.40E-05    1.00  0.00E+00  X:
 CS     9.99926E-01  MO     7.37673E-05  O      1.21012E-11

BCC_A2_CHKD#2........... E  5.934E-05  0.00E+00  5.93E-05    1.00  0.00E+00  X:
 MO     9.98778E-01  CS     1.22244E-03  O      3.30132E-12


----------------------------------------

[OC parser] Parsed components
  Cs : moles=4.4092e-05, x=0.42657, mu/RT=-12.685, activity=3.0959e-06, ref=SER (default)
  Mo : moles=5.9273e-05, x=0.57343, mu/RT=-4.9505, activity=0.0070802, ref=SER (default)
  O : moles=7.2864e-16, x=0, mu/RT=-79.152, activity=4.2142e-35, ref=GAS

[OC parser] Parsed phases
  Phase condensed : moles=5.934e-05, volume=0
    Elements
      Cs = 7.25396e-08
      Mo = 5.92675e-05
      O = 1.959e-16
    Species
      BCC_A2 : moles=5.934e-05, volume=0
        Cs = 7.25396e-08
        Mo = 5.92675e-05
        O = 1.959e-16
  Phase liquid : moles=4.402e-05, volume=0
    Elements
      Cs = 4.40167e-05
      Mo = 3.24724e-09
      O = 5.32695e-16
OpenCalphad attempt for 'matrix' with WARM-START

[OC input] ./OCinput_matrix.OCM
----------------------------------------
r u ./OCoutput_matrix.OCU

set ref o gas * 100000

set c t=979
set c p=608000
set c n(o)=0.665555
set c n(pu)=0.0940517
set c n(u)=0.240394
c e
c w

save u ./OCoutput_matrix Y

l /out=./OCoutput_matrix.DAT r 1

fin
----------------------------------------

3A unfished preparations for XTDB


Open Calphad (OC) software version   6.106 , linked 2026-04-16
with command line monitor version  73

This program is available with a GNU General Public License.
either version 2 of the License, or any later version.
It includes the General Thermodynamic Package, version GTP-3.31,
Hillert's equilibrium calculation algorithm version HMS-3.0 ,
step/map/plot software version SMP-2.30 using GNUPLOT 5.2 graphics.
Numerical routines are extracted from LAPACK and BLAS and
the assessment procedure uses LMDIF from ANL.

Linked with OpenMp for parallel execution
 Warning, no environment variable OCHOME and no help file
 Working directory is: /home/ecappellari/transparant/sciantix-official/regression/test_JOG_MOX/point_10_r_2p7mm
--->OC6:
Read unformatted file: This is a save file for OC version:     OCF-3.20
Generated:  2026.04.19 21h34

 3E reading unformatted:        14778           0           0
3E Addition type   1, Inden-Hillert magn model for BCC_A2
3E Addition type   1, Inden-Hillert magn model for FCC_A1
 3E no experimental data
 3E no coefficient values saved
 3E Read assessment record
 No coefficients allocated
--->OC6:--->OC6:--->OC6:--->OC6:--->OC6:--->OC6:--->OC6:--->OC6:--->OC6:3Y Removed  2 gridpoints by merging
Gridmin:    7483 points   2.26E-02 s and      20 clockcycles, T=  979.00
 3Y leaving global_gridmin
Equilibrium result:  14 its,  2.3637E-02 s,     24 cc, GS= -3.9941575E+05 J/mol
--->OC6:Equilibrium result:   9 its,  5.1600E-04 s,      0 cc, GS= -3.9941575E+05 J/mol
3Y Testing if any gridpoint is below the calculated equilibrium
--->OC6:--->OC6:
Overwriting previous results on ./OCoutput_matrix.OCU
3E allocating workspace:     122160          (   2160,   10000,    2)
 3E saving            3  symbols as texts
 3E used        12112  words out of       122160  for storing static data
 ceqrecsize not implemented          25
 3E Saving an equilibrium record requires     2613       0 words
 3E not storing unused equilibria from:            2
 3E Saving assessment record
 3E No experimental equilibrium range set
 3E allocating assessment head record          48
 3E no coefficients allocated
 3E no work array (assrec%wopt) allocated
Used    14813 words out of   122160,  12.13% for unformatted memory save
Written workspace      59252 bytes unformatted on ./OCoutput_matrix.OCU
--->OC6:--->OC6:Output on file: ./OCoutput_matrix.DAT
Output unit reset to screen:    6
--->OC6:--->OC6:
[OC output] ./OCoutput_matrix.DAT
----------------------------------------

%%%%%%%%%% OC output written: 2026-04-19  21h34

Output for equilibrium:   1, DEFAULT_EQUILIBRIUM          2026.04.19
Conditions .................................................:
  1:T=979, 2:P=608000, 3:N(O)=0.665555, 4:N(PU)=.0940517, 5:N(U)=0.240394
 Degrees of freedom are   0

Some global data, reference state SER ......................:
T=    979.00 K (   705.85 C), P=  6.0800E+05 Pa, V=  0.0000E+00 m3
N=   1.0000E+00 moles, B=   9.0823E+01 g, RT=   8.1399E+03 J/mol
G= -3.99416E+05 J, G/N=-3.9942E+05 J/mol, H=-3.4270E+05 J, S= 5.794E+01 J/K

Some data for components ...................................:
Component name    Moles      Mole-fr  Chem.pot/RT  Activities  Ref.state
O                 6.6556E-01  0.66555 -3.9110E+01  1.0340E-17  GAS             
PU                9.4052E-02  0.09405 -4.3541E+01  1.2310E-19  SER (default)   
U                 2.4039E-01  0.24039 -4.4606E+01  4.2437E-20  SER (default)   

Some data for phases .......................................:
Name                Status Moles      Volume    Form.Units Cmp/FU dGm/RT  Comp:
C1_MO2.................. E  1.000E+00  0.00E+00  3.34E-01    2.99  0.00E+00  X:
 O      6.65555E-01  U      2.40394E-01  PU     9.40516E-02


----------------------------------------

[OC parser] Parsed components
  O : moles=0.66556, x=0.66555, mu/RT=-39.11, activity=1.034e-17, ref=GAS
  Pu : moles=0.094052, x=0.09405, mu/RT=-43.541, activity=1.231e-19, ref=SER (default)
  U : moles=0.24039, x=0.24039, mu/RT=-44.606, activity=4.2437e-20, ref=SER (default)

[OC parser] Parsed phases
  Phase condensed : moles=1, volume=0
    Elements
      O = 0.665555
      Pu = 0.0940516
      U = 0.240394
    Species
      C1_MO2 : moles=1, volume=0
        O = 0.665555
        Pu = 0.0940516
        U = 0.240394
OpenCalphad attempt for 'at grain boundary' with WARM-START

[OC input] ./OCinput_fission_products.OCM
----------------------------------------
r u ./OCoutput_fission_products.OCU

set ref o gas * 100000

set c t=979
set c p=608000
set c n(cs)=5.72752e-05
set c n(mo)=7.68408e-05
set c n(o)=0.999866
c e
set c n(o)=none
set c mu(o)=-636687

c w

save u ./OCoutput_fission_products Y

l /out=./OCoutput_fission_products.DAT r 1

fin
----------------------------------------

3A unfished preparations for XTDB


Open Calphad (OC) software version   6.106 , linked 2026-04-16
with command line monitor version  73

This program is available with a GNU General Public License.
either version 2 of the License, or any later version.
It includes the General Thermodynamic Package, version GTP-3.31,
Hillert's equilibrium calculation algorithm version HMS-3.0 ,
step/map/plot software version SMP-2.30 using GNUPLOT 5.2 graphics.
Numerical routines are extracted from LAPACK and BLAS and
the assessment procedure uses LMDIF from ANL.

Linked with OpenMp for parallel execution
 Warning, no environment variable OCHOME and no help file
 Working directory is: /home/ecappellari/transparant/sciantix-official/regression/test_JOG_MOX/point_10_r_2p7mm
--->OC6:
Read unformatted file: This is a save file for OC version:     OCF-3.20
Generated:  2026.04.19 21h34

 3E reading unformatted:        16431           0           0
3E Addition type   1, Inden-Hillert magn model for BCC_A2
3E Addition type   1, Inden-Hillert magn model for FCC_A1
3E Addition type   1, Inden-Hillert magn model for HCP_A3
 3E no experimental data
 3E no coefficient values saved
 3E Read assessment record
 No coefficients allocated
--->OC6:--->OC6:--->OC6:--->OC6:--->OC6:--->OC6:--->OC6:--->OC6:--->OC6:
Error codes:   4144     0    50
Message: Degrees of freedom not zero

--->OC6:--->OC6:--->OC6:--->OC6:Equilibrium result:   9 its,  6.5400E-04 s,      1 cc, GS= -9.0105322E+00 J/mol
3Y Testing if any gridpoint is below the calculated equilibrium
--->OC6:--->OC6:
Overwriting previous results on ./OCoutput_fission_products.OCU
3E allocating workspace:     123330          (   3330,   10000,    2)
 3E saving            3  symbols as texts
 3E used        12286  words out of       123330  for storing static data
 ceqrecsize not implemented          39
 3E Saving an equilibrium record requires     4092       0 words
 3E not storing unused equilibria from:            2
 3E Saving assessment record
 3E No experimental equilibrium range set
 3E allocating assessment head record          48
 3E no coefficients allocated
 3E no work array (assrec%wopt) allocated
Used    16466 words out of   123330,  13.35% for unformatted memory save
Written workspace      65864 bytes unformatted on ./OCoutput_fission_products.OCU
--->OC6:--->OC6:Output on file: ./OCoutput_fission_products.DAT
Output unit reset to screen:    6
--->OC6:--->OC6:
[OC output] ./OCoutput_fission_products.DAT
----------------------------------------

%%%%%%%%%% OC output written: 2026-04-19  21h34

Output for equilibrium:   1, DEFAULT_EQUILIBRIUM          2026.04.19
Conditions .................................................:
  1:T=979, 2:P=608000, 3:N(CS)=5.72752E-05, 4:N(MO)=7.68408E-05, 5:MU(O)=
    -636687
 Degrees of freedom are   0

Some global data, reference state SER ......................:
T=    979.00 K (   705.85 C), P=  6.0800E+05 Pa, V=  0.0000E+00 m3
N=   1.3412E-04 moles, B=   1.4985E-02 g, RT=   8.1399E+03 J/mol
G= -9.01053E+00 J, G/N=-6.7185E+04 J/mol, H= 2.6940E+00 J, S= 1.196E-02 J/K

Some data for components ...................................:
Component name    Moles      Mole-fr  Chem.pot/RT  Activities  Ref.state
CS                5.7275E-05  0.42706 -1.2685E+01  3.0959E-06  SER (default)   
MO                7.6841E-05  0.57294 -4.9505E+00  7.0802E-03  SER (default)   
O                 9.4598E-16  0.00000 -7.8218E+01  1.0724E-34  GAS             

Some data for phases .......................................:
Name                Status Moles      Volume    Form.Units Cmp/FU dGm/RT  Comp:
LIQUID.................. E  5.719E-05  0.00E+00  5.72E-05    1.00  0.00E+00  X:
 CS     9.99926E-01  MO     7.37673E-05  O      1.21012E-11

BCC_A2_CHKD#2........... E  7.693E-05  0.00E+00  7.69E-05    1.00  0.00E+00  X:
 MO     9.98778E-01  CS     1.22244E-03  O      3.30132E-12


----------------------------------------

[OC parser] Parsed components
  Cs : moles=5.7275e-05, x=0.42706, mu/RT=-12.685, activity=3.0959e-06, ref=SER (default)
  Mo : moles=7.6841e-05, x=0.57294, mu/RT=-4.9505, activity=0.0070802, ref=SER (default)
  O : moles=9.4598e-16, x=0, mu/RT=-78.218, activity=1.0724e-34, ref=GAS

[OC parser] Parsed phases
  Phase condensed : moles=7.693e-05, volume=0
    Elements
      Cs = 9.40423e-08
      Mo = 7.6836e-05
      O = 2.53971e-16
    Species
      BCC_A2 : moles=7.693e-05, volume=0
        Cs = 9.40423e-08
        Mo = 7.6836e-05
        O = 2.53971e-16
  Phase liquid : moles=5.719e-05, volume=0
    Elements
      Cs = 5.71858e-05
      Mo = 4.21875e-09
      O = 6.92068e-16
OpenCalphad attempt for 'matrix' with WARM-START

[OC input] ./OCinput_matrix.OCM
----------------------------------------
r u ./OCoutput_matrix.OCU

set ref o gas * 100000

set c t=979
set c p=676000
set c n(o)=0.665837
set c n(pu)=0.0936674
set c n(u)=0.240496
c e
c w

save u ./OCoutput_matrix Y

l /out=./OCoutput_matrix.DAT r 1

fin
----------------------------------------

3A unfished preparations for XTDB


Open Calphad (OC) software version   6.106 , linked 2026-04-16
with command line monitor version  73

This program is available with a GNU General Public License.
either version 2 of the License, or any later version.
It includes the General Thermodynamic Package, version GTP-3.31,
Hillert's equilibrium calculation algorithm version HMS-3.0 ,
step/map/plot software version SMP-2.30 using GNUPLOT 5.2 graphics.
Numerical routines are extracted from LAPACK and BLAS and
the assessment procedure uses LMDIF from ANL.

Linked with OpenMp for parallel execution
 Warning, no environment variable OCHOME and no help file
 Working directory is: /home/ecappellari/transparant/sciantix-official/regression/test_JOG_MOX/point_10_r_2p7mm
--->OC6:
Read unformatted file: This is a save file for OC version:     OCF-3.20
Generated:  2026.04.19 21h34

 3E reading unformatted:        14778           0           0
3E Addition type   1, Inden-Hillert magn model for BCC_A2
3E Addition type   1, Inden-Hillert magn model for FCC_A1
 3E no experimental data
 3E no coefficient values saved
 3E Read assessment record
 No coefficients allocated
--->OC6:--->OC6:--->OC6:--->OC6:--->OC6:--->OC6:--->OC6:--->OC6:--->OC6:3Y Removed  2 gridpoints by merging
Gridmin:    7483 points   1.64E-02 s and      15 clockcycles, T=  979.00
 3Y leaving global_gridmin
Equilibrium result:  14 its,  1.7329E-02 s,     18 cc, GS= -3.9943251E+05 J/mol
--->OC6:Equilibrium result:   9 its,  5.2200E-04 s,      0 cc, GS= -3.9943251E+05 J/mol
3Y Testing if any gridpoint is below the calculated equilibrium
--->OC6:--->OC6:
Overwriting previous results on ./OCoutput_matrix.OCU
3E allocating workspace:     122160          (   2160,   10000,    2)
 3E saving            3  symbols as texts
 3E used        12112  words out of       122160  for storing static data
 ceqrecsize not implemented          25
 3E Saving an equilibrium record requires     2613       0 words
 3E not storing unused equilibria from:            2
 3E Saving assessment record
 3E No experimental equilibrium range set
 3E allocating assessment head record          48
 3E no coefficients allocated
 3E no work array (assrec%wopt) allocated
Used    14813 words out of   122160,  12.13% for unformatted memory save
Written workspace      59252 bytes unformatted on ./OCoutput_matrix.OCU
--->OC6:--->OC6:Output on file: ./OCoutput_matrix.DAT
Output unit reset to screen:    6
--->OC6:--->OC6:
[OC output] ./OCoutput_matrix.DAT
----------------------------------------

%%%%%%%%%% OC output written: 2026-04-19  21h34

Output for equilibrium:   1, DEFAULT_EQUILIBRIUM          2026.04.19
Conditions .................................................:
  1:T=979, 2:P=676000, 3:N(O)=0.665837, 4:N(PU)=.0936674, 5:N(U)=0.240496
 Degrees of freedom are   0

Some global data, reference state SER ......................:
T=    979.00 K (   705.85 C), P=  6.7600E+05 Pa, V=  0.0000E+00 m3
N=   1.0000E+00 moles, B=   9.0758E+01 g, RT=   8.1399E+03 J/mol
G= -3.99433E+05 J, G/N=-3.9943E+05 J/mol, H=-3.4280E+05 J, S= 5.784E+01 J/K

Some data for components ...................................:
Component name    Moles      Mole-fr  Chem.pot/RT  Activities  Ref.state
O                 6.6584E-01  0.66584 -3.8494E+01  1.9157E-17  GAS             
PU                9.3667E-02  0.09367 -4.4872E+01  3.2542E-20  SER (default)   
U                 2.4050E-01  0.24050 -4.5941E+01  1.1172E-20  SER (default)   

Some data for phases .......................................:
Name                Status Moles      Volume    Form.Units Cmp/FU dGm/RT  Comp:
C1_MO2.................. E  1.000E+00  0.00E+00  3.34E-01    2.99  0.00E+00  X:
 O      6.65837E-01  U      2.40496E-01  PU     9.36674E-02


----------------------------------------

[OC parser] Parsed components
  O : moles=0.66584, x=0.66584, mu/RT=-38.494, activity=1.9157e-17, ref=GAS
  Pu : moles=0.093667, x=0.09367, mu/RT=-44.872, activity=3.2542e-20, ref=SER (default)
  U : moles=0.2405, x=0.2405, mu/RT=-45.941, activity=1.1172e-20, ref=SER (default)

[OC parser] Parsed phases
  Phase condensed : moles=1, volume=0
    Elements
      O = 0.665837
      Pu = 0.0936674
      U = 0.240496
    Species
      C1_MO2 : moles=1, volume=0
        O = 0.665837
        Pu = 0.0936674
        U = 0.240496
OpenCalphad attempt for 'at grain boundary' with WARM-START

[OC input] ./OCinput_fission_products.OCM
----------------------------------------
r u ./OCoutput_fission_products.OCU

set ref o gas * 100000

set c t=979
set c p=676000
set c n(cs)=7.15785e-05
set c n(mo)=9.58171e-05
set c n(o)=0.999833
c e
set c n(o)=none
set c mu(o)=-626659

c w

save u ./OCoutput_fission_products Y

l /out=./OCoutput_fission_products.DAT r 1

fin
----------------------------------------

3A unfished preparations for XTDB


Open Calphad (OC) software version   6.106 , linked 2026-04-16
with command line monitor version  73

This program is available with a GNU General Public License.
either version 2 of the License, or any later version.
It includes the General Thermodynamic Package, version GTP-3.31,
Hillert's equilibrium calculation algorithm version HMS-3.0 ,
step/map/plot software version SMP-2.30 using GNUPLOT 5.2 graphics.
Numerical routines are extracted from LAPACK and BLAS and
the assessment procedure uses LMDIF from ANL.

Linked with OpenMp for parallel execution
 Warning, no environment variable OCHOME and no help file
 Working directory is: /home/ecappellari/transparant/sciantix-official/regression/test_JOG_MOX/point_10_r_2p7mm
--->OC6:
Read unformatted file: This is a save file for OC version:     OCF-3.20
Generated:  2026.04.19 21h34

 3E reading unformatted:        16431           0           0
3E Addition type   1, Inden-Hillert magn model for BCC_A2
3E Addition type   1, Inden-Hillert magn model for FCC_A1
3E Addition type   1, Inden-Hillert magn model for HCP_A3
 3E no experimental data
 3E no coefficient values saved
[...]
3E reading database file: /home/ecappellari/transparant/opencalphad/data/CsMoO_TAFID_2021_Anna.TDB

Out of    82 model parameters    82 have been entered


There are     1 bibliographic references
REF0            '*** Not set by database or user'

--->OC6:--->OC6:--->OC6:--->OC6:--->OC6:--->OC6:--->OC6:--->OC6:Gridmin:    9683 points   2.03E-02 s and      21 clockcycles, T=  979.00
 3Y leaving global_gridmin
Phase change iteration:    14  +LIQUID
Phase change iteration:    15  +LIQUID
Phase change iteration:    16  +LIQUID
Phase change iteration:    17  +LIQUID
MM Too many stable phases at iter  17, phase   8 replaced by   2, T=   979.00
Phase change iteration:    21  -CS2MOO4_S2
Equilibrium result:  49 its,  2.3260E-02 s,     24 cc, GS= -9.4186359E+04 J/mol
--->OC6:--->OC6:--->OC6:--->OC6:--->OC6:Phase change iteration:     4  -GAS
Phase change iteration:     8  +MOO2
Phase change iteration:    12  +CS2MOO4_S2
Phase change iteration:    13  +CS2MOO4_S2
Phase change iteration:    14  +CS2MOO4_S2
Phase change iteration:    15  +CS2MOO4_S2
MM Too many stable phases at iter  15, phase  31 replaced by  13, T=   979.00
Phase change iteration:    19  -CS2MOO4_S2
Phase change iteration:    23  +MOO2
Phase change iteration:    27  +CS2MOO4_S2
MM Removing phase:   13  13#1
Phase change iteration:    29  +CS2MOO4_S1
Phase change iteration:    30  +CS2MOO4_S1
Phase change iteration:    31  +CS2MOO4_S1
MM Too many stable phases at iter  31, phase  31 replaced by  12, T=   979.00
Phase change iteration:    35  +MOO2
Phase change iteration:    36  +MOO2
Phase change iteration:    37  -CS2MOO4_S1
Phase change iteration:    41  +MOO2
Phase change iteration:    45  +CS2MOO4_S1
Phase change iteration:    46  +CS2MOO4_S1
MM Removing phase:   12  12#1
MM Restoring phase:     12   12  CS2MOO4_S1       9.7858E-02
MM Restoring phase:     13   13  CS2MOO4_S2       1.1107E-01
 MM warning, a restored phase wants to be stable:          13

Error codes:   4363     0    50
Message: No equilibrium, a restored phase should be stable

--->OC6:Axis number /1/: Condition varying along axis:Minimal value /0/: Maximal value /1/: Increment /172500/: --->OC6:--->OC6:Step options? /NORMAL/:  There are            1  start equilibria
 Entering map_startpoint           1
MM Phase change not allowed: +CS2MOO4_S2
Warning: global minimizer cannot be used for the current set of conditions
MM Calculate with activity condition
Phase change iteration:     4  +CS2MOO4_S2
Phase change iteration:     5  +CS2MOO4_S2
Phase change iteration:     6  +CS2MOO4_S2
Phase change iteration:     7  +CS2MOO4_S2
MM Too many stable phases at iter   7, phase  31 replaced by  13, T=   979.00
Phase change iteration:    11  +MOO2
Phase change iteration:    12  +MOO2
Phase change iteration:    13  +MOO2
Phase change iteration:    14  -CS2MOO4_S2
Phase change iteration:    18  +BCC_A2
Phase change iteration:    22  +MOO2
Phase change iteration:    23  +MOO2
MM Removing phase:   31  31#1
Phase change iteration:    25  +CS2MOO4_S2
MM Removing phase:   13  13#1
Phase change iteration:    27  +CS2MOO4_S1
MM Too many stable phases at iter  27, phase   3 replaced by  12, T=   979.00
Phase change iteration:    31  -CS2MOO4_S1
Phase change iteration:    35  +BCC_A2
Phase change iteration:    39  +CS2MOO4_S1
Phase change iteration:    40  +CS2MOO4_S1
Phase change iteration:    41  +CS2MOO4_S1
Phase change iteration:    42  +CS2MOO4_S1
MM Too many stable phases at iter  42, phase   3 replaced by  12, T=   979.00
Phase change iteration:    46  -CS2MOO4_S1
Phase change iteration:    50  +BCC_A2
MM Removing phase:   12  12#1
MM Restoring phase:     12   12  CS2MOO4_S1       7.3420E-03
MM Restoring phase:     13   13  CS2MOO4_S2       2.0555E-02
MM Restoring phase:     31   31  MOO2       1.6279E+00
 MM warning, a restored phase wants to be stable:          31
 Error calling calceq7 in map_startpoint A        4363
Failed calculate a start point:    0   4363
 Failed finding startpoints for step/map
--->OC6:--->OC6:--->OC6:Warning: global minimizer cannot be used for the current set of conditions
Phase change iteration:     4  -BCC_A2
Phase change iteration:     8  +MOO2
Phase change iteration:    12  +CS2MOO4_S2
Phase change iteration:    13  +CS2MOO4_S2
Phase change iteration:    14  +CS2MOO4_S2
Phase change iteration:    15  +CS2MOO4_S2
MM Too many stable phases at iter  15, phase  31 replaced by  13, T=   979.00
Phase change iteration:    19  -CS2MOO4_S2
Phase change iteration:    23  +MOO2
Phase change iteration:    27  +CS2MOO4_S2
MM Removing phase:   13  13#1
Phase change iteration:    29  +CS2MOO4_S1
Phase change iteration:    30  +CS2MOO4_S1
Phase change iteration:    31  +CS2MOO4_S1
MM Too many stable phases at iter  31, phase  31 replaced by  12, T=   979.00
Phase change iteration:    35  -CS2MOO4_S1
Phase change iteration:    39  +MOO2
Phase change iteration:    43  +CS2MOO4_S1
Phase change iteration:    44  +CS2MOO4_S1
MM Removing phase:   12  12#1
MM Restoring phase:     12   12  CS2MOO4_S1       9.5083E-02
MM Restoring phase:     13   13  CS2MOO4_S2       1.0830E-01
 MM warning, a restored phase wants to be stable:          13

Error codes:   4363     0    50
Message: No equilibrium, a restored phase should be stable

--->OC6:Phase change iteration:     4  +CS2MOO4_S2
Phase change iteration:     5  +CS2MOO4_S2
Phase change iteration:     6  +CS2MOO4_S2
Phase change iteration:     7  +CS2MOO4_S2
MM Too many stable phases at iter   7, phase  31 replaced by  13, T=   979.00
Phase change iteration:    11  +MOO2
Phase change iteration:    12  +MOO2
Phase change iteration:    13  -CS2MOO4_S2
Phase change iteration:    17  +MOO2
Phase change iteration:    21  +CS2MOO4_S2
MM Removing phase:   13  13#1
Phase change iteration:    23  +CS2MOO4_S1
Phase change iteration:    24  +CS2MOO4_S1
Phase change iteration:    25  +CS2MOO4_S1
MM Too many stable phases at iter  25, phase  31 replaced by  12, T=   979.00
Phase change iteration:    29  -CS2MOO4_S1
Phase change iteration:    33  +MOO2
Phase change iteration:    37  +CS2MOO4_S1
Phase change iteration:    38  +CS2MOO4_S1
MM Removing phase:   12  12#1
MM Restoring phase:     12   12  CS2MOO4_S1       9.5083E-02
MM Restoring phase:     13   13  CS2MOO4_S2       1.0830E-01
 MM warning, a restored phase wants to be stable:          13

Error codes:   4363     0    50
Message: No equilibrium, a restored phase should be stable

--->OC6:Output on file: ./OCoutput_fission_products.DAT

Output unit reset to screen:    6
--->OC6:--->OC6:
[OC output] ./OCoutput_fission_products.DAT
----------------------------------------

%%%%%%%%%% OC output written: 2026-04-19  21h35

Output for equilibrium:   1, DEFAULT_EQUILIBRIUM          2026.04.19

 *** The results below are not a valid equilibrium as last calculation failed

Conditions .................................................:
  1:T=979, 2:P=7000000, 3:N(CS)=.00342401, 4:N(MO)=.00450178, 5:MU(O)=-185715
 Degrees of freedom are   0

Some global data, reference state SER ......................:
T=    979.00 K (   705.85 C), P=  7.0000E+06 Pa, V=  0.0000E+00 m3
N=   2.0395E-02 moles, B=   1.0865E+00 g, RT=   8.1399E+03 J/mol
G= -5.01590E+03 J, G/N=-2.4594E+05 J/mol, H=-3.8335E+03 J, S= 1.208E+00 J/K

Some data for components ...................................:
Component name    Moles      Mole-fr  Chem.pot/RT  Activities  Ref.state
CS                3.4240E-03  0.16789 -3.7837E+01  3.6933E-17  SER (default)   
MO                4.5018E-03  0.22073 -1.4081E+01  7.6647E-07  SER (default)   
O                 1.2469E-02  0.61138 -2.2815E+01  1.2343E-10  GAS             

Some data for phases .......................................:
Name                Status Moles      Volume    Form.Units Cmp/FU dGm/RT  Comp:
LIQUID.................. E  1.215E-02  0.00E+00  1.75E-03    6.93  0.00E+00  X:
 O      5.73872E-01  CS     2.81805E-01  MO     1.44323E-01

CS2MOO4_S1.............. E  0.000E+00  0.00E+00  0.00E+00    7.00  1.36E-02  X:
 O      5.71429E-01  CS     2.85714E-01  MO     1.42857E-01

CS2MOO4_S2.............. E  0.000E+00  0.00E+00  0.00E+00    7.00  1.55E-02  X:
 O      5.71429E-01  CS     2.85714E-01  MO     1.42857E-01

MOO2.................... E  8.245E-03  0.00E+00  2.75E-03    3.00  0.00E+00  X:
 O      6.66667E-01  MO     3.33333E-01  CS     0.00000E+00


 *** There are phase(s) which would like to be stable:
   CS2MOO4_S1  1.3583E-02   CS2MOO4_S2  1.5471E-02
 *** The results above are not a valid equilibrium as last calculation failed


----------------------------------------
Warning: OpenCalphad returned an invalid equilibrium for location 'at grain boundary' using PRESSURE-SWEEP.
Captured fallback N(O)=0.012469 from invalid MU(O) output for location 'at grain boundary'.
OpenCalphad attempt for 'at grain boundary' with OXYGEN-MOLES-FIXED

[OC input] ./OCinput_fission_products.OCM
----------------------------------------
@$ Initialize variables:
r t /home/ecappellari/transparant/opencalphad/data/CsMoO_TAFID_2021_Anna cs mo o

set ref o gas * 100000

set c t=979
set c p=7e+06
set c n(cs)=0.00342401
set c n(mo)=0.00450178
set c n(o)=0.992074
c e
set c n(o)=0.012469
set c mu(o)=none

c e
c w
l /out=./OCoutput_fission_products.DAT r 1

fin
----------------------------------------

3A unfished preparations for XTDB


Open Calphad (OC) software version   6.106 , linked 2026-04-16
with command line monitor version  73

This program is available with a GNU General Public License.
either version 2 of the License, or any later version.
It includes the General Thermodynamic Package, version GTP-3.31,
Hillert's equilibrium calculation algorithm version HMS-3.0 ,
step/map/plot software version SMP-2.30 using GNUPLOT 5.2 graphics.
Numerical routines are extracted from LAPACK and BLAS and
the assessment procedure uses LMDIF from ANL.

Linked with OpenMp for parallel execution
 Warning, no environment variable OCHOME and no help file
 Working directory is: /home/ecappellari/transparant/sciantix-official/regression/test_JOG_MOX/point_10_r_2p7mm
--->OC6:--->OC6: 3E Database file extention is: ".tdb"
Database has  3 elements: CS MO O 
Give the elements to select, finish with empty line
Selected  3 elements: CS MO O 
Select elements /no more/:Selected  3 elements: CS MO O 
3E reading database file: /home/ecappellari/transparant/opencalphad/data/CsMoO_TAFID_2021_Anna.TDB

Out of    82 model parameters    82 have been entered


There are     1 bibliographic references
REF0            '*** Not set by database or user'

--->OC6:--->OC6:--->OC6:--->OC6:--->OC6:--->OC6:--->OC6:--->OC6:Gridmin:    9683 points   1.87E-02 s and      19 clockcycles, T=  979.00
 3Y leaving global_gridmin
Phase change iteration:    14  +LIQUID
Phase change iteration:    15  +LIQUID
Phase change iteration:    16  +LIQUID
Phase change iteration:    17  +LIQUID
MM Too many stable phases at iter  17, phase   8 replaced by   2, T=   979.00
Phase change iteration:    21  -CS2MOO4_S2
Equilibrium result:  49 its,  2.1610E-02 s,     22 cc, GS= -9.4186359E+04 J/mol
--->OC6:--->OC6:Attempt to remove a non-existing condition

Error codes:   4131     0    50
Message: No such condition or experiment

--->OC6:--->OC6:Gridmin:    9683 points   2.15E-02 s and      21 clockcycles, T=  979.00
 3Y leaving global_gridmin
Phase change iteration:     4  +LIQUID
Phase change iteration:     5  +LIQUID
Phase change iteration:     6  +LIQUID
Phase change iteration:     7  +LIQUID
MM Too many stable phases at iter   7, phase   8 replaced by   2, T=   979.00
Equilibrium result:  34 its,  3.3081E-02 s,     34 cc, GS= -5.0254077E+03 J/mol
--->OC6:Equilibrium result:   9 its,  9.9300E-04 s,      1 cc, GS= -5.0254078E+03 J/mol
3Y Testing if any gridpoint is below the calculated equilibrium
--->OC6:Output on file: ./OCoutput_fission_products.DAT
Output unit reset to screen:    6
--->OC6:--->OC6:
[OC output] ./OCoutput_fission_products.DAT
----------------------------------------

%%%%%%%%%% OC output written: 2026-04-19  21h35

Output for equilibrium:   1, DEFAULT_EQUILIBRIUM          2026.04.19
Conditions .................................................:
  1:T=979, 2:P=7000000, 3:N(CS)=.00342401, 4:N(MO)=.00450178, 5:N(O)=.012469
 Degrees of freedom are   0

Some global data, reference state SER ......................:
T=    979.00 K (   705.85 C), P=  7.0000E+06 Pa, V=  0.0000E+00 m3
N=   2.0395E-02 moles, B=   1.0865E+00 g, RT=   8.1399E+03 J/mol
G= -5.02541E+03 J, G/N=-2.4641E+05 J/mol, H=-3.8860E+03 J, S= 1.164E+00 J/K

Some data for components ...................................:
Component name    Moles      Mole-fr  Chem.pot/RT  Activities  Ref.state
CS                3.4240E-03  0.16789 -4.1234E+01  1.2363E-18  SER (default)   
MO                4.5018E-03  0.22073 -2.0117E+01  1.8329E-09  SER (default)   
O                 1.2469E-02  0.61138 -1.9797E+01  2.5240E-09  GAS             

Some data for phases .......................................:
Name                Status Moles      Volume    Form.Units Cmp/FU dGm/RT  Comp:
LIQUID.................. E  6.603E-04  0.00E+00  1.12E-04    5.89  0.00E+00  X:
 O      6.16247E-01  CS     2.14004E-01  MO     1.69748E-01

CS2MOO4_S2.............. E  1.149E-02  0.00E+00  1.64E-03    7.00  0.00E+00  X:
 O      5.71429E-01  CS     2.85714E-01  MO     1.42857E-01

MOO2.................... E  8.245E-03  0.00E+00  2.75E-03    3.00  0.00E+00  X:
 O      6.66667E-01  MO     3.33333E-01  CS     0.00000E+00


----------------------------------------

[OC parser] Parsed components
  Cs : moles=0.003424, x=0.16789, mu/RT=-41.234, activity=1.2363e-18, ref=SER (default)
  Mo : moles=0.0045018, x=0.22073, mu/RT=-20.117, activity=1.8329e-09, ref=SER (default)
  O : moles=0.012469, x=0.61138, mu/RT=-19.797, activity=2.524e-09, ref=GAS

[OC parser] Parsed phases
  Phase condensed : moles=0.019735, volume=0
    Elements
      Cs = 0.00328285
      Mo = 0.00438976
      O = 0.0120624
    Species
      CS2MOO4_S2 : moles=0.01149, volume=0
        Cs = 0.00328285
        Mo = 0.00164143
        O = 0.00656572
      MOO2 : moles=0.008245, volume=0
        Cs = 0
        Mo = 0.00274833
        O = 0.00549667
  Phase liquid : moles=0.0006603, volume=0
    Elements
      Cs = 0.000141307
      Mo = 0.000112085
      O = 0.000406908
Using current directory.
STOP Au revoir
STOP Au revoir
STOP Au revoir
STOP Au revoir
STOP Au revoir
STOP Au revoir
STOP Au revoir
STOP Au revoir
STOP Au revoir
STOP Au revoir
STOP Au revoir
STOP Au revoir
STOP Au revoir
STOP Au revoir
STOP Au revoir
STOP Au revoir
STOP Au revoir
STOP Au revoir
STOP Au revoir
STOP Au revoir
STOP Au revoir
STOP Au revoir
STOP Au revoir
STOP Au revoir
STOP Au revoir
STOP Au revoir
STOP Au revoir
STOP Au revoir
STOP Au revoir
STOP Au revoir
STOP Au revoir
STOP Au revoir
STOP Au revoir
STOP Au revoir
STOP Au revoir
STOP Au revoir
STOP Au revoir
STOP Au revoir
STOP Au revoir
STOP Au revoir
STOP Au revoir
STOP Au revoir
STOP Au revoir
STOP Au revoir
STOP Au revoir
STOP Au revoir
STOP Au revoir
STOP Au revoir
STOP Au revoir
STOP Au revoir
STOP Au revoir
STOP Au revoir
STOP Au revoir
STOP Au revoir
STOP Au revoir
STOP Au revoir
STOP Au revoir
STOP Au revoir
STOP Au revoir
STOP Au revoir
STOP Au revoir
STOP Au revoir
STOP Au revoir
STOP Au revoir
STOP Au revoir
STOP Au revoir
STOP Au revoir
STOP Au revoir
STOP Au revoir
STOP Au revoir
STOP Au revoir
STOP Au revoir
STOP Au revoir
STOP Au revoir
STOP Au revoir
STOP Au revoir
STOP Au revoir
STOP Au revoir
STOP Au revoir
STOP Au revoir
STOP Au revoir
STOP Au revoir
STOP Au revoir
STOP Au revoir
STOP Au revoir
STOP Au revoir
STOP Au revoir
STOP Au revoir
STOP Au revoir
STOP Au revoir
STOP Au revoir
STOP Au revoir
STOP Au revoir
STOP Au revoir
STOP Au revoir
STOP Au revoir
STOP Au revoir
STOP Au revoir
STOP Au revoir
STOP Au revoir
STOP Au revoir
STOP Au revoir
STOP Au revoir
STOP Au revoir
STOP Au revoir
STOP Au revoir
STOP Au revoir
STOP Au revoir
STOP Au revoir
STOP Au revoir
STOP Au revoir
STOP Au revoir
STOP Au revoir
STOP Au revoir
STOP Au revoir
STOP Au revoir
STOP Au revoir
STOP Au revoir
STOP Au revoir
STOP Au revoir
STOP Au revoir
STOP Au revoir
STOP Au revoir
STOP Au revoir
STOP Au revoir
STOP Au revoir
STOP Au revoir
STOP Au revoir
STOP Au revoir
STOP Au revoir
STOP Au revoir
STOP Au revoir
STOP Au revoir
STOP Au revoir
STOP Au revoir
STOP Au revoir
STOP Au revoir
STOP Au revoir
STOP Au revoir
STOP Au revoir
STOP Au revoir
STOP Au revoir
STOP Au revoir
STOP Au revoir
STOP Au revoir
STOP Au revoir
STOP Au revoir
STOP Au revoir
STOP Au revoir
STOP Au revoir
STOP Au revoir
STOP Au revoir
STOP Au revoir
STOP Au revoir
STOP Au revoir
STOP Au revoir
STOP Au revoir
STOP Au revoir
STOP Au revoir
STOP Au revoir
STOP Au revoir
STOP Au revoir
STOP Au revoir
STOP Au revoir
STOP Au revoir
STOP Au revoir
STOP Au revoir
STOP Au revoir
STOP Au revoir
STOP Au revoir
STOP Au revoir
STOP Au revoir
STOP Au revoir
STOP Au revoir
STOP Au revoir
STOP Au revoir
STOP Au revoir
STOP Au revoir
STOP Au revoir
STOP Au revoir
STOP Au revoir
STOP Au revoir
STOP Au revoir
STOP Au revoir
STOP Au revoir
STOP Au revoir
STOP Au revoir
STOP Au revoir
STOP Au revoir
STOP Au revoir
STOP Au revoir
STOP Au revoir
STOP Au revoir
STOP Au revoir
STOP Au revoir
STOP Au revoir
STOP Au revoir
STOP Au revoir
STOP Au revoir
STOP Au revoir
STOP Au revoir
STOP Au revoir
STOP Au revoir
STOP Au revoir
STOP Au revoir
STOP Au revoir
STOP Au revoir
STOP Au revoir
STOP Au revoir
STOP Au revoir
STOP Au revoir
STOP Au revoir
STOP Au revoir
STOP Au revoir
STOP Au revoir
STOP Au revoir
STOP Au revoir
STOP Au revoir
STOP Au revoir
STOP Au revoir
STOP Au revoir
STOP Au revoir
STOP Au revoir
STOP Au revoir
STOP Au revoir
STOP Au revoir
STOP Au revoir
STOP Au revoir
STOP Au revoir
STOP Au revoir
STOP Au revoir
STOP Au revoir
STOP Au revoir
STOP Au revoir
STOP Au revoir
STOP Au revoir
STOP Au revoir
STOP Au revoir
STOP Au revoir
STOP Au revoir
STOP Au revoir
STOP Au revoir
STOP Au revoir
STOP Au revoir
STOP Au revoir
STOP Au revoir
STOP Au revoir
STOP Au revoir
STOP Au revoir
STOP Au revoir
STOP Au revoir
STOP Au revoir
STOP Au revoir
STOP Au revoir
STOP Au revoir
STOP Au revoir
STOP Au revoir
STOP Au revoir
STOP Au revoir
STOP Au revoir
STOP Au revoir
STOP Au revoir
STOP Au revoir
STOP Au revoir
STOP Au revoir
STOP Au revoir
STOP Au revoir
STOP Au revoir
STOP Au revoir
STOP Au revoir
STOP Au revoir
STOP Au revoir
STOP Au revoir
STOP Au revoir
STOP Au revoir
STOP Au revoir
STOP Au revoir
STOP Au revoir
STOP Au revoir
STOP Au revoir
STOP Au revoir
STOP Au revoir
STOP Au revoir
STOP Au revoir
STOP Au revoir
STOP Au revoir
STOP Au revoir
STOP Au revoir
STOP Au revoir
STOP Au revoir
STOP Au revoir
STOP Au revoir
STOP Au revoir
STOP Au revoir
STOP Au revoir
STOP Au revoir
STOP Au revoir
STOP Au revoir
STOP Au revoir
STOP Au revoir
STOP Au revoir
STOP Au revoir
STOP Au revoir
STOP Au revoir
STOP Au revoir
STOP Au revoir
STOP Au revoir
STOP Au revoir
STOP Au revoir
STOP Au revoir
STOP Au revoir
STOP Au revoir
STOP Au revoir
STOP Au revoir
STOP Au revoir
STOP Au revoir
STOP Au revoir
STOP Au revoir
STOP Au revoir
STOP Au revoir
STOP Au revoir
STOP Au revoir
STOP Au revoir
STOP Au revoir
STOP Au revoir
STOP Au revoir
STOP Au revoir
STOP Au revoir
STOP Au revoir
STOP Au revoir
STOP Au revoir
STOP Au revoir
STOP Au revoir
STOP Au revoir
STOP Au revoir
STOP Au revoir
STOP Au revoir
STOP Au revoir
STOP Au revoir
STOP Au revoir
STOP Au revoir
STOP Au revoir
STOP Au revoir
STOP Au revoir
STOP Au revoir
STOP Au revoir
STOP Au revoir
STOP Au revoir
STOP Au revoir
STOP Au revoir
STOP Au revoir
STOP Au revoir
STOP Au revoir
STOP Au revoir
STOP Au revoir
STOP Au revoir
STOP Au revoir
STOP Au revoir
STOP Au revoir
STOP Au revoir
STOP Au revoir
STOP Au revoir
STOP Au revoir
STOP Au revoir
STOP Au revoir
STOP Au revoir
STOP Au revoir
STOP Au revoir
STOP Au revoir
STOP Au revoir
STOP Au revoir
STOP Au revoir
STOP Au revoir
STOP Au revoir
STOP Au revoir
STOP Au revoir
STOP Au revoir
STOP Au revoir
STOP Au revoir
