Use ./sciantix.x ../input_path/ in the working directory
OpenCalphad attempt for 'matrix' with WARM-START

[OC input] ./OCinput_matrix.OCM
----------------------------------------
@$ Initialize variables:
r t /home/ecappellari/transparant/opencalphad/data/O-Pu-UPaper o pu u

set ref o gas * 100000

set c t=979
set c p=200000
set c n(o)=0.663866
set c n(pu)=0.0735683
set c n(u)=0.262566
c e
c w

save u ./OCoutput_matrix Y

l /out=./OCoutput_matrix.DAT r 1

fin
----------------------------------------

3A unfished preparations for XTDB


Open Calphad (OC) software version   6.106 , linked 2026-04-16
with command line monitor version  73

This program is available with a GNU General Public License.
either version 2 of the License, or any later version.
It includes the General Thermodynamic Package, version GTP-3.31,
Hillert's equilibrium calculation algorithm version HMS-3.0 ,
step/map/plot software version SMP-2.30 using GNUPLOT 5.2 graphics.
Numerical routines are extracted from LAPACK and BLAS and
the assessment procedure uses LMDIF from ANL.

Linked with OpenMp for parallel execution
 Warning, no environment variable OCHOME and no help file
 Working directory is: /home/ecappellari/transparant/sciantix-official/regression/test_JOG_MOX/point_10_r_2p7mm
--->OC6:--->OC6: 3E Database file extention is: ".tdb"

This database has information to users, please read carefully
Database modified by Pauline Fouquet-Metivier et al, Calphad (2022)
Only for the liquid phase of Pu-O and U-Pu-O systems

 ELEMENT /-   ELECTRON_GAS              0.0000E+00  0.0000E+00  0.0000E+00!

Database has  5 elements: O  PU U  AR N 
Give the elements to select, finish with empty line
Selected  3 elements: O  PU U 
Select elements /no more/:Selected  3 elements: O  PU U 
3E reading database file: /home/ecappellari/transparant/opencalphad/data/O-Pu-UPaper.TDB
 3B insering interaction before existing F

Out of   115 model parameters   108 have been entered


There are    17 bibliographic references
REF161          '*** Not set by database or user'
REF178          '*** Not set by database or user'
REF175          '*** Not set by database or user'
REF176          '*** Not set by database or user'
REF177          '*** Not set by database or user'
REF203          'O1PU1<G> T.C.R.A.S. Class: 6, from SSUB, id to Tbase'
REF204          'O2PU1<G> T.C.R.A.S. Class: 7 PLUTONIUM DIOXIDE <GAS>, from 
                 SSUB, id to Tbase'
REF209          'O1U1<G> T.C.R.A.S Class: 6 Data provided by T.C.R.A.S. in 
                 2000, from SSUB, different of Tbase'
REF210          'O2U1<G> T.C.R.A.S. Class: 6 URANIUM DIOXIDE <GAS>, from 
                 SSUB, slightly different of Tbase'
REF211          'O3U1<G> T.C.R.A.S Class: 6 Data provided by T.C.R.A.S. in 
                 2000, from SSUB, different of Tbase'
REF10           'A T Dinsdale, SGTE Data for Pure Elements, Calphad 15(1991)4 
                 p 317-425; also in NPL Report DMA(A)195 Rev. August 1990'
FOUQ            'P. Fouquet-Metivier et al, Calphad (2022)'
REF412          'C. Gueneau, N. Dupin, B. Sundman, C. Martial, J.-C. Dumas, 
                 S. Gosse, S. Chatain, F. De Bruycker, D. Manara, R.J.M. 
                 Konings, J. Nucl. Mat. 419 (1-3), 145-167 (2011); C-O-Pu-U'
REF37           'M. Kurata, Calphad, 23 (3-4), 305-337 1999'
REF115          '*** Not set by database or user'
REF92           'N. Dupin, Contrat CEA 4000294936/P5B73 Np-Pu Fuelbase, 
                 february REF115'
REF137          '*** Not set by database or user'

--->OC6:--->OC6:--->OC6:--->OC6:--->OC6:--->OC6:--->OC6:--->OC6:3Y Removed  2 gridpoints by merging
Gridmin:    7483 points   1.04E-02 s and       9 clockcycles, T=  979.00
 3Y leaving global_gridmin
Equilibrium result:  13 its,  1.0997E-02 s,     11 cc, GS= -3.9937699E+05 J/mol
--->OC6:Equilibrium result:   9 its,  3.1700E-04 s,      0 cc, GS= -3.9937699E+05 J/mol
3Y Testing if any gridpoint is below the calculated equilibrium
--->OC6:--->OC6:3E allocating workspace:     122160          (   2160,   10000,    2)
 3E saving            3  symbols as texts
 3E used        12112  words out of       122160  for storing static data
 ceqrecsize not implemented          25
 3E Saving an equilibrium record requires     2613       0 words
 3E not storing unused equilibria from:            2
 3E Saving assessment record
 3E No experimental equilibrium range set
 3E allocating assessment head record          48
 3E no coefficients allocated
 3E no work array (assrec%wopt) allocated
Used    14813 words out of   122160,  12.13% for unformatted memory save
Written workspace      59252 bytes unformatted on ./OCoutput_matrix.OCU
--->OC6:--->OC6:Output on file: ./OCoutput_matrix.DAT
Output unit reset to screen:    6
--->OC6:--->OC6:
[OC output] ./OCoutput_matrix.DAT
----------------------------------------

%%%%%%%%%% OC output written: 2026-04-20  13h27

Output for equilibrium:   1, DEFAULT_EQUILIBRIUM          2026.04.20
Conditions .................................................:
  1:T=979, 2:P=200000, 3:N(O)=0.663866, 4:N(PU)=.0735683, 5:N(U)=0.262566
 Degrees of freedom are   0

Some global data, reference state SER ......................:
T=    979.00 K (   705.85 C), P=  2.0000E+05 Pa, V=  0.0000E+00 m3
N=   1.0000E+00 moles, B=   9.1075E+01 g, RT=   8.1399E+03 J/mol
G= -3.99377E+05 J, G/N=-3.9938E+05 J/mol, H=-3.4229E+05 J, S= 5.831E+01 J/K

Some data for components ...................................:
Component name    Moles      Mole-fr  Chem.pot/RT  Activities  Ref.state
O                 6.6387E-01  0.66387 -4.1073E+01  1.4528E-18  GAS             
PU                7.3568E-02  0.07357 -3.9132E+01  1.0124E-17  SER (default)   
U                 2.6257E-01  0.26257 -3.9417E+01  7.6104E-18  SER (default)   

Some data for phases .......................................:
Name                Status Moles      Volume    Form.Units Cmp/FU dGm/RT  Comp:
C1_MO2.................. E  1.000E+00  0.00E+00  3.36E-01    2.98  0.00E+00  X:
 O      6.63866E-01  U      2.62566E-01  PU     7.35683E-02


----------------------------------------

[OC parser] Parsed components
  O : moles=0.66387, x=0.66387, mu/RT=-41.073, activity=1.4528e-18, ref=GAS
  Pu : moles=0.073568, x=0.07357, mu/RT=-39.132, activity=1.0124e-17, ref=SER (default)
  U : moles=0.26257, x=0.26257, mu/RT=-39.417, activity=7.6104e-18, ref=SER (default)

[OC parser] Parsed phases
  Phase condensed : moles=1, volume=0
    Elements
      O = 1.97832
      Pu = 0.219234
      U = 0.782447
    Species
      C1_MO2 : moles=1, volume=0
        O = 1.97832
        Pu = 0.219234
        U = 0.782447
[Thermochemistry] C1_MO2 (condensed, matrix) composition=O:1.9783207,Pu:0.21923353,U:0.78244668 molar_mass=270.304 g/mol
OpenCalphad attempt for 'matrix' with WARM-START

[OC input] ./OCinput_matrix.OCM
----------------------------------------
r u ./OCoutput_matrix.OCU

set ref o gas * 100000

set c t=979
set c p=268000
set c n(o)=0.664146
set c n(pu)=0.0734767
set c n(u)=0.262377
c e
c w

save u ./OCoutput_matrix Y

l /out=./OCoutput_matrix.DAT r 1

fin
----------------------------------------

3A unfished preparations for XTDB


Open Calphad (OC) software version   6.106 , linked 2026-04-16
with command line monitor version  73

This program is available with a GNU General Public License.
either version 2 of the License, or any later version.
It includes the General Thermodynamic Package, version GTP-3.31,
Hillert's equilibrium calculation algorithm version HMS-3.0 ,
step/map/plot software version SMP-2.30 using GNUPLOT 5.2 graphics.
Numerical routines are extracted from LAPACK and BLAS and
the assessment procedure uses LMDIF from ANL.

Linked with OpenMp for parallel execution
 Warning, no environment variable OCHOME and no help file
 Working directory is: /home/ecappellari/transparant/sciantix-official/regression/test_JOG_MOX/point_10_r_2p7mm
--->OC6:
Read unformatted file: This is a save file for OC version:     OCF-3.20
Generated:  2026.04.20 13h27

 3E reading unformatted:        14778           0           0
3E Addition type   1, Inden-Hillert magn model for BCC_A2
3E Addition type   1, Inden-Hillert magn model for FCC_A1
 3E no experimental data
 3E no coefficient values saved
 3E Read assessment record
 No coefficients allocated
--->OC6:--->OC6:--->OC6:--->OC6:--->OC6:--->OC6:--->OC6:--->OC6:--->OC6:3Y Removed  2 gridpoints by merging
Gridmin:    7483 points   1.05E-02 s and       9 clockcycles, T=  979.00
 3Y leaving global_gridmin
Equilibrium result:  14 its,  1.1323E-02 s,     11 cc, GS= -3.9940941E+05 J/mol
--->OC6:Equilibrium result:   9 its,  3.5100E-04 s,      1 cc, GS= -3.9940941E+05 J/mol
3Y Testing if any gridpoint is below the calculated equilibrium
--->OC6:--->OC6:
Overwriting previous results on ./OCoutput_matrix.OCU
3E allocating workspace:     122160          (   2160,   10000,    2)
 3E saving            3  symbols as texts
 3E used        12112  words out of       122160  for storing static data
 ceqrecsize not implemented          25
 3E Saving an equilibrium record requires     2613       0 words
 3E not storing unused equilibria from:            2
 3E Saving assessment record
 3E No experimental equilibrium range set
 3E allocating assessment head record          48
 3E no coefficients allocated
 3E no work array (assrec%wopt) allocated
Used    14813 words out of   122160,  12.13% for unformatted memory save
Written workspace      59252 bytes unformatted on ./OCoutput_matrix.OCU
--->OC6:--->OC6:Output on file: ./OCoutput_matrix.DAT
Output unit reset to screen:    6
--->OC6:--->OC6:
[OC output] ./OCoutput_matrix.DAT
----------------------------------------

%%%%%%%%%% OC output written: 2026-04-20  13h27

Output for equilibrium:   1, DEFAULT_EQUILIBRIUM          2026.04.20
Conditions .................................................:
  1:T=979, 2:P=268000, 3:N(O)=0.664146, 4:N(PU)=.0734767, 5:N(U)=0.262377
 Degrees of freedom are   0

Some global data, reference state SER ......................:
T=    979.00 K (   705.85 C), P=  2.6800E+05 Pa, V=  0.0000E+00 m3
N=   1.0000E+00 moles, B=   9.1012E+01 g, RT=   8.1399E+03 J/mol
G= -3.99409E+05 J, G/N=-3.9941E+05 J/mol, H=-3.4240E+05 J, S= 5.823E+01 J/K

Some data for components ...................................:
Component name    Moles      Mole-fr  Chem.pot/RT  Activities  Ref.state
O                 6.6415E-01  0.66415 -4.0980E+01  1.5944E-18  GAS             
PU                7.3477E-02  0.07348 -3.9590E+01  6.4038E-18  SER (default)   
U                 2.6238E-01  0.26238 -3.9894E+01  4.7223E-18  SER (default)   

Some data for phases .......................................:
Name                Status Moles      Volume    Form.Units Cmp/FU dGm/RT  Comp:
C1_MO2.................. E  1.000E+00  0.00E+00  3.36E-01    2.98  0.00E+00  X:
 O      6.64146E-01  U      2.62377E-01  PU     7.34767E-02


----------------------------------------

[OC parser] Parsed components
  O : moles=0.66415, x=0.66415, mu/RT=-40.98, activity=1.5944e-18, ref=GAS
  Pu : moles=0.073477, x=0.07348, mu/RT=-39.59, activity=6.4038e-18, ref=SER (default)
  U : moles=0.26238, x=0.26238, mu/RT=-39.894, activity=4.7223e-18, ref=SER (default)

[OC parser] Parsed phases
  Phase condensed : moles=1, volume=0
    Elements
      O = 1.97916
      Pu = 0.218961
      U = 0.781883
    Species
      C1_MO2 : moles=1, volume=0
        O = 1.97916
        Pu = 0.218961
        U = 0.781883
OpenCalphad attempt for 'matrix' with WARM-START

[OC input] ./OCinput_matrix.OCM
----------------------------------------
r u ./OCoutput_matrix.OCU

set ref o gas * 100000

set c t=979
set c p=336000
set c n(o)=0.664427
set c n(pu)=0.0733851
set c n(u)=0.262188
c e
c w

save u ./OCoutput_matrix Y

l /out=./OCoutput_matrix.DAT r 1

fin
----------------------------------------

3A unfished preparations for XTDB


Open Calphad (OC) software version   6.106 , linked 2026-04-16
with command line monitor version  73

This program is available with a GNU General Public License.
either version 2 of the License, or any later version.
It includes the General Thermodynamic Package, version GTP-3.31,
Hillert's equilibrium calculation algorithm version HMS-3.0 ,
step/map/plot software version SMP-2.30 using GNUPLOT 5.2 graphics.
Numerical routines are extracted from LAPACK and BLAS and
the assessment procedure uses LMDIF from ANL.

Linked with OpenMp for parallel execution
 Warning, no environment variable OCHOME and no help file
 Working directory is: /home/ecappellari/transparant/sciantix-official/regression/test_JOG_MOX/point_10_r_2p7mm
--->OC6:
Read unformatted file: This is a save file for OC version:     OCF-3.20
Generated:  2026.04.20 13h27

 3E reading unformatted:        14778           0           0
3E Addition type   1, Inden-Hillert magn model for BCC_A2
3E Addition type   1, Inden-Hillert magn model for FCC_A1
 3E no experimental data
 3E no coefficient values saved
 3E Read assessment record
 No coefficients allocated
--->OC6:--->OC6:--->OC6:--->OC6:--->OC6:--->OC6:--->OC6:--->OC6:--->OC6:3Y Removed  2 gridpoints by merging
Gridmin:    7483 points   1.01E-02 s and       8 clockcycles, T=  979.00
 3Y leaving global_gridmin
Equilibrium result:  14 its,  1.0720E-02 s,     11 cc, GS= -3.9944054E+05 J/mol
--->OC6:Equilibrium result:   9 its,  3.2400E-04 s,      1 cc, GS= -3.9944054E+05 J/mol
3Y Testing if any gridpoint is below the calculated equilibrium
--->OC6:--->OC6:
Overwriting previous results on ./OCoutput_matrix.OCU
3E allocating workspace:     122160          (   2160,   10000,    2)
 3E saving            3  symbols as texts
 3E used        12112  words out of       122160  for storing static data
 ceqrecsize not implemented          25
 3E Saving an equilibrium record requires     2613       0 words
 3E not storing unused equilibria from:            2
 3E Saving assessment record
 3E No experimental equilibrium range set
 3E allocating assessment head record          48
 3E no coefficients allocated
 3E no work array (assrec%wopt) allocated
Used    14813 words out of   122160,  12.13% for unformatted memory save
Written workspace      59252 bytes unformatted on ./OCoutput_matrix.OCU
--->OC6:--->OC6:Output on file: ./OCoutput_matrix.DAT
Output unit reset to screen:    6
--->OC6:--->OC6:
[OC output] ./OCoutput_matrix.DAT
----------------------------------------

%%%%%%%%%% OC output written: 2026-04-20  13h27

Output for equilibrium:   1, DEFAULT_EQUILIBRIUM          2026.04.20
Conditions .................................................:
  1:T=979, 2:P=336000, 3:N(O)=0.664427, 4:N(PU)=.0733851, 5:N(U)=0.262188
 Degrees of freedom are   0

Some global data, reference state SER ......................:
T=    979.00 K (   705.85 C), P=  3.3600E+05 Pa, V=  0.0000E+00 m3
N=   1.0000E+00 moles, B=   9.0949E+01 g, RT=   8.1399E+03 J/mol
G= -3.99441E+05 J, G/N=-3.9944E+05 J/mol, H=-3.4250E+05 J, S= 5.816E+01 J/K

Some data for components ...................................:
Component name    Moles      Mole-fr  Chem.pot/RT  Activities  Ref.state
O                 6.6443E-01  0.66443 -4.0823E+01  1.8659E-18  GAS             
PU                7.3385E-02  0.07339 -4.0110E+01  3.8059E-18  SER (default)   
U                 2.6219E-01  0.26219 -4.0433E+01  2.7545E-18  SER (default)   

Some data for phases .......................................:
Name                Status Moles      Volume    Form.Units Cmp/FU dGm/RT  Comp:
C1_MO2.................. E  1.000E+00  0.00E+00  3.36E-01    2.98  0.00E+00  X:
 O      6.64427E-01  U      2.62188E-01  PU     7.33851E-02


----------------------------------------

[OC parser] Parsed components
  O : moles=0.66443, x=0.66443, mu/RT=-40.823, activity=1.8659e-18, ref=GAS
  Pu : moles=0.073385, x=0.07339, mu/RT=-40.11, activity=3.8059e-18, ref=SER (default)
  U : moles=0.26219, x=0.26219, mu/RT=-40.433, activity=2.7545e-18, ref=SER (default)

[OC parser] Parsed phases
  Phase condensed : moles=1, volume=0
    Elements
      O = 1.97999
      Pu = 0.218688
      U = 0.78132
    Species
      C1_MO2 : moles=1, volume=0
        O = 1.97999
        Pu = 0.218688
        U = 0.78132
OpenCalphad attempt for 'at grain boundary' with WARM-START

[OC input] ./OCinput_fission_products.OCM
----------------------------------------
@$ Initialize variables:
r t /home/ecappellari/transparant/opencalphad/data/CsMoO_TAFID_2021_Anna cs mo o

set ref o gas * 100000

set c t=979
set c p=336000
set c n(cs)=1.25512e-05
set c n(mo)=1.66595e-05
set c n(o)=0.999971
c e
set c n(o)=none
set c mu(o)=-664574

c w

save u ./OCoutput_fission_products Y

l /out=./OCoutput_fission_products.DAT r 1

fin
----------------------------------------

3A unfished preparations for XTDB


Open Calphad (OC) software version   6.106 , linked 2026-04-16
with command line monitor version  73

This program is available with a GNU General Public License.
either version 2 of the License, or any later version.
It includes the General Thermodynamic Package, version GTP-3.31,
Hillert's equilibrium calculation algorithm version HMS-3.0 ,
step/map/plot software version SMP-2.30 using GNUPLOT 5.2 graphics.
Numerical routines are extracted from LAPACK and BLAS and
the assessment procedure uses LMDIF from ANL.

Linked with OpenMp for parallel execution
 Warning, no environment variable OCHOME and no help file
 Working directory is: /home/ecappellari/transparant/sciantix-official/regression/test_JOG_MOX/point_10_r_2p7mm
--->OC6:--->OC6: 3E Database file extention is: ".tdb"
Database has  3 elements: CS MO O 
Give the elements to select, finish with empty line
Selected  3 elements: CS MO O 
Select elements /no more/:Selected  3 elements: CS MO O 
3E reading database file: /home/ecappellari/transparant/opencalphad/data/CsMoO_TAFID_2021_Anna.TDB

Out of    82 model parameters    82 have been entered


There are     1 bibliographic references
REF0            '*** Not set by database or user'

--->OC6:--->OC6:--->OC6:--->OC6:--->OC6:--->OC6:--->OC6:--->OC6:Gridmin:    9683 points   1.13E-02 s and      11 clockcycles, T=  979.00
 3Y leaving global_gridmin
Phase change iteration:    14  +LIQUID
Phase change iteration:    15  +LIQUID
Phase change iteration:    16  +LIQUID
Phase change iteration:    17  +LIQUID
MM Too many stable phases at iter  17, phase   8 replaced by   2, T=   979.00
Phase change iteration:    21  -CS2MOO4_S2
Equilibrium result:  49 its,  1.3047E-02 s,     13 cc, GS= -1.0296415E+05 J/mol
--->OC6:--->OC6:--->OC6:--->OC6:Phase change iteration:     4  -GAS
Phase change iteration:     8  +BCC_A2
Phase change iteration:    12  -BCC_A2
Phase change iteration:    13  +BCC_A2
Phase change iteration:    17  +CS7O1
Phase change iteration:    18  +CS7O1
Phase change iteration:    19  +CS7O1
Phase change iteration:    20  +CS7O1
MM Too many stable phases at iter  20, phase   3 replaced by  18, T=   979.00
Phase change iteration:    24  -CS7O1
Phase change iteration:    28  +BCC_A2
Phase change iteration:    32  +CS7O1
MM Removing phase:   18  18#1
Phase change iteration:    34  +CS4O
Phase change iteration:    36  +CS4O
Phase change iteration:    38  -LIQUID
Phase change iteration:    39  +LIQUID
Phase change iteration:    43  -LIQUID
Phase change iteration:    44  +LIQUID
Phase change iteration:    48  -LIQUID
Phase change iteration:    49  +LIQUID
Phase change iteration:    53  -LIQUID
Phase change iteration:    55  +LIQUID
Phase change iteration:    59  -LIQUID
Phase change iteration:    60  +LIQUID
Phase change iteration:    64  -LIQUID
MM Removing phase:    2   2#1
Phase change iteration:    68  +FCC_A1
Phase change iteration:    72  -BCC_A2
Phase change iteration:    76  +HCP_A3
Phase change iteration:    80  -FCC_A1
MM Restoring phase:      2    2  LIQUID       3.6672E-02
MM Restoring phase:     18   18  CS7O1
 MM warning, a restored phase wants to be stable:           2

Error codes:   4363     0    50
Message: No equilibrium, a restored phase should be stable

--->OC6:--->OC6:3E allocating workspace:     123330          (   3330,   10000,    2)
 3E saving            3  symbols as texts
 3E used        12281  words out of       123330  for storing static data
 ceqrecsize not implemented          38
 3E Saving an equilibrium record requires     3978       0 words
 3E not storing unused equilibria from:            2
 3E Saving assessment record
 3E No experimental equilibrium range set
 3E allocating assessment head record          48
 3E no coefficients allocated
 3E no work array (assrec%wopt) allocated
Used    16347 words out of   123330,  13.25% for unformatted memory save
Written workspace      65388 bytes unformatted on ./OCoutput_fission_products.OCU
--->OC6:--->OC6:Output on file: ./OCoutput_fission_products.DAT

Output unit reset to screen:    6
--->OC6:--->OC6:
[OC output] ./OCoutput_fission_products.DAT
----------------------------------------

%%%%%%%%%% OC output written: 2026-04-20  13h27

Output for equilibrium:   1, DEFAULT_EQUILIBRIUM          2026.04.20

 *** The results below are not a valid equilibrium as last calculation failed

Conditions .................................................:
  1:T=979, 2:P=336000, 3:N(CS)=1.25512E-05, 4:N(MO)=1.66595E-05, 5:MU(O)=
    -664574
 Degrees of freedom are   0

Some global data, reference state SER ......................:
T=    979.00 K (   705.85 C), P=  3.3600E+05 Pa, V=  0.0000E+00 m3
N=   2.9211E-05 moles, B=   3.2665E-03 g, RT=   8.1399E+03 J/mol
G= -1.84716E+00 J, G/N=-6.3236E+04 J/mol, H= 7.5838E-01 J, S= 2.661E-03 J/K

Some data for components ...................................:
Component name    Moles      Mole-fr  Chem.pot/RT  Activities  Ref.state
CS                1.2551E-05  0.42968 -1.2649E+01  3.2112E-06  SER (default)   
MO                1.6659E-05  0.57032 -4.0919E+00  1.6708E-02  SER (default)   
O                 1.6079E-17  0.00000 -8.1644E+01  3.4873E-36  GAS             

Some data for phases .......................................:
Name                Status Moles      Volume    Form.Units Cmp/FU dGm/RT  Comp:
LIQUID.................. E  0.000E+00  0.00E+00  0.00E+00    1.00  3.66E-02  X:
 CS     9.99785E-01  MO     2.14960E-04  O      1.21012E-11

HCP_A3.................. E  2.921E-05  0.00E+00  2.92E-05    1.00  0.00E+00  X:
 MO     5.70322E-01  CS     4.29678E-01  O      5.50440E-13


 *** There are phase(s) which would like to be stable:
   LIQUID  3.6648E-02
 *** The results above are not a valid equilibrium as last calculation failed


----------------------------------------
Warning: OpenCalphad returned an invalid equilibrium for location 'at grain boundary' using WARM-START.
Captured fallback N(O)=1.6079e-17 from invalid MU(O) output for location 'at grain boundary'.
OpenCalphad attempt for 'at grain boundary' with COLD-START

[OC input] ./OCinput_fission_products.OCM
----------------------------------------
@$ Initialize variables:
r t /home/ecappellari/transparant/opencalphad/data/CsMoO_TAFID_2021_Anna cs mo o

set ref o gas * 100000

set c t=979
set c p=336000
set c n(cs)=1.25512e-05
set c n(mo)=1.66595e-05
set c n(o)=0.999971
c e
set c n(o)=none
set c mu(o)=-664574

c e
c w
l /out=./OCoutput_fission_products.DAT r 1

fin
----------------------------------------

3A unfished preparations for XTDB


Open Calphad (OC) software version   6.106 , linked 2026-04-16
with command line monitor version  73

This program is available with a GNU General Public License.
either version 2 of the License, or any later version.
It includes the General Thermodynamic Package, version GTP-3.31,
Hillert's equilibrium calculation algorithm version HMS-3.0 ,
step/map/plot software version SMP-2.30 using GNUPLOT 5.2 graphics.
Numerical routines are extracted from LAPACK and BLAS and
the assessment procedure uses LMDIF from ANL.

Linked with OpenMp for parallel execution
 Warning, no environment variable OCHOME and no help file
 Working directory is: /home/ecappellari/transparant/sciantix-official/regression/test_JOG_MOX/point_10_r_2p7mm
--->OC6:--->OC6: 3E Database file extention is: ".tdb"
Database has  3 elements: CS MO O 
Give the elements to select, finish with empty line
Selected  3 elements: CS MO O 
Select elements /no more/:Selected  3 elements: CS MO O 
3E reading database file: /home/ecappellari/transparant/opencalphad/data/CsMoO_TAFID_2021_Anna.TDB

Out of    82 model parameters    82 have been entered


There are     1 bibliographic references
REF0            '*** Not set by database or user'

--->OC6:--->OC6:--->OC6:--->OC6:--->OC6:--->OC6:--->OC6:--->OC6:Gridmin:    9683 points   1.13E-02 s and      11 clockcycles, T=  979.00
 3Y leaving global_gridmin
Phase change iteration:    14  +LIQUID
Phase change iteration:    15  +LIQUID
Phase change iteration:    16  +LIQUID
Phase change iteration:    17  +LIQUID
MM Too many stable phases at iter  17, phase   8 replaced by   2, T=   979.00
Phase change iteration:    21  -CS2MOO4_S2
Equilibrium result:  49 its,  1.3138E-02 s,     13 cc, GS= -1.0296415E+05 J/mol
--->OC6:--->OC6:--->OC6:--->OC6:Warning: global minimizer cannot be used for the current set of conditions
Phase change iteration:     4  -GAS
Phase change iteration:     8  +BCC_A2
Phase change iteration:    12  -BCC_A2
Phase change iteration:    13  +BCC_A2
Phase change iteration:    17  +CS7O1
Phase change iteration:    18  +CS7O1
Phase change iteration:    19  +CS7O1
Phase change iteration:    20  +CS7O1
MM Too many stable phases at iter  20, phase   3 replaced by  18, T=   979.00
Phase change iteration:    24  -CS7O1
Phase change iteration:    28  +BCC_A2
Phase change iteration:    32  +CS7O1
MM Removing phase:   18  18#1
Phase change iteration:    34  +CS4O
Phase change iteration:    36  +CS4O
Phase change iteration:    38  -LIQUID
Phase change iteration:    39  +LIQUID
Phase change iteration:    43  -LIQUID
Phase change iteration:    44  +LIQUID
Phase change iteration:    48  -LIQUID
Phase change iteration:    49  +LIQUID
Phase change iteration:    53  -LIQUID
Phase change iteration:    55  +LIQUID
Phase change iteration:    59  -LIQUID
Phase change iteration:    60  +LIQUID
Phase change iteration:    64  -LIQUID
MM Removing phase:    2   2#1
Phase change iteration:    68  +FCC_A1
Phase change iteration:    72  -BCC_A2
Phase change iteration:    76  +HCP_A3
Phase change iteration:    80  -FCC_A1
MM Restoring phase:      2    2  LIQUID       3.6672E-02
MM Restoring phase:     18   18  CS7O1
 MM warning, a restored phase wants to be stable:           2

Error codes:   4363     0    50
Message: No equilibrium, a restored phase should be stable

--->OC6:Phase change iteration:     4  +LIQUID
Equilibrium result:  10 its,  4.2200E-04 s,      0 cc, GS= -1.8472780E+00 J/mol
3Y Testing if any gridpoint is below the calculated equilibrium
 3Y Equilibrium wrong, gridtest found BCC_A2                  
 3Y recalculate with:           38           2          39
 MM recalculating with this phase as stable 2:           38
MM Calculate with activity condition
Phase change iteration:     4  -BCC_A2_CHKD#2
Phase change iteration:     8  -HCP_A3
Phase change iteration:    12  +BCC_A2#1
Phase change iteration:    16  -BCC_A2#1
Phase change iteration:    20  +BCC_A2_CHKD#2
Phase change iteration:    24  +BCC_A2#1
Phase change iteration:    25  +BCC_A2#1
Phase change iteration:    26  +BCC_A2#1
Phase change iteration:    27  +BCC_A2#1
MM Too many stable phases at iter  27, phase   4 replaced by   3, T=   979.00
Phase change iteration:    31  -BCC_A2#1
MM Removing phase:    3   3#1
Phase change iteration:    35  +GAS
Phase change iteration:    39  -GAS
Phase change iteration:    43  +BCC_A2_CHKD#2
Phase change iteration:    47  +FCC_A1
Phase change iteration:    48  +FCC_A1
Phase change iteration:    49  +FCC_A1
Phase change iteration:    50  +FCC_A1
MM Too many stable phases at iter  50, phase   4 replaced by  25, T=   979.00
Phase change iteration:    54  -LIQUID
Phase change iteration:    58  +BCC_A2_CHKD#2
Phase change iteration:    62  +LIQUID
Phase change iteration:    63  +LIQUID
Phase change iteration:    64  +LIQUID
Phase change iteration:    65  +LIQUID
MM Too many stable phases at iter  65, phase   4 replaced by   2, T=   979.00
Phase change iteration:    69  -LIQUID
Phase change iteration:    73  +BCC_A2_CHKD#2
Phase change iteration:    77  +LIQUID
MM Removing phase:    2   2#1
Phase change iteration:    79  +HCP_A3
Phase change iteration:    80  +HCP_A3
Phase change iteration:    81  +HCP_A3
MM Too many stable phases at iter  81, phase  25 replaced by  26, T=   979.00
MM Restoring phase:      2    2  LIQUID       6.0467E-01
MM Restoring phase:      3    3  BCC_A2#1       3.3751E-14
 MM warning, a restored phase wants to be stable:           2

Error codes:   4363     0    50
Message: No equilibrium, a restored phase should be stable

--->OC6:Output on file: ./OCoutput_fission_products.DAT

Output unit reset to screen:    6
--->OC6:--->OC6:
[OC output] ./OCoutput_fission_products.DAT
----------------------------------------

%%%%%%%%%% OC output written: 2026-04-20  13h27

Output for equilibrium:   1, DEFAULT_EQUILIBRIUM          2026.04.20

 *** The results below are not a valid equilibrium as last calculation failed

Conditions .................................................:
  1:T=979, 2:P=336000, 3:N(CS)=1.25512E-05, 4:N(MO)=1.66595E-05, 5:MU(O)=
    -664574
 Degrees of freedom are   0

Some global data, reference state SER ......................:
T=    979.00 K (   705.85 C), P=  3.3600E+05 Pa, V=  0.0000E+00 m3
N=   2.9211E-05 moles, B=   3.2665E-03 g, RT=   8.1399E+03 J/mol
G= -1.90566E+00 J, G/N=-6.5238E+04 J/mol, H= 6.1342E-01 J, S= 2.573E-03 J/K

Some data for components ...................................:
Component name    Moles      Mole-fr  Chem.pot/RT  Activities  Ref.state
CS                1.2551E-05  0.42968 -1.2080E+01  5.6692E-06  SER (default)   
MO                1.6660E-05  0.57032 -4.9515E+00  7.0730E-03  SER (default)   
O                 5.1016E-17  0.00000 -8.1644E+01  3.4873E-36  GAS             

Some data for phases .......................................:
Name                Status Moles      Volume    Form.Units Cmp/FU dGm/RT  Comp:
LIQUID.................. E  0.000E+00  0.00E+00  0.00E+00    1.00  6.04E-01  X:
 CS     9.99745E-01  MO     2.55062E-04  O      1.21012E-11

BCC_A2_CHKD#2........... E  1.270E-05  0.00E+00  1.27E-05    1.00  0.00E+00  X:
 MO     9.97733E-01  CS     2.26744E-03  O      3.30132E-12

HCP_A3.................. E  1.651E-05  0.00E+00  1.65E-05    1.00  0.00E+00  X:
 CS     7.58570E-01  MO     2.41430E-01  O      5.50055E-13


 *** There are phase(s) which would like to be stable:
   LIQUID  6.0421E-01
 *** The results above are not a valid equilibrium as last calculation failed


----------------------------------------
Warning: OpenCalphad returned an invalid equilibrium for location 'at grain boundary' using COLD-START.
Captured fallback N(O)=5.1016e-17 from invalid MU(O) output for location 'at grain boundary'.
OpenCalphad attempt for 'at grain boundary' with PRESSURE-SWEEP

[OC input] ./OCinput_fission_products.OCM
----------------------------------------
@$ Initialize variables:
r t /home/ecappellari/transparant/opencalphad/data/CsMoO_TAFID_2021_Anna cs mo o

set ref o gas * 100000

set c t=979
set c p=336000
set c n(cs)=1.25512e-05
set c n(mo)=1.66595e-05
set c n(o)=0.999971
c e
set c n(o)=none
set c mu(o)=-664574

set c p=100000
c w
set axis
1
p
100000
336000


step
normal

set c p=336000
c e
c w
l /out=./OCoutput_fission_products.DAT r 1

fin
----------------------------------------

3A unfished preparations for XTDB


Open Calphad (OC) software version   6.106 , linked 2026-04-16
with command line monitor version  73

This program is available with a GNU General Public License.
either version 2 of the License, or any later version.
It includes the General Thermodynamic Package, version GTP-3.31,
Hillert's equilibrium calculation algorithm version HMS-3.0 ,
step/map/plot software version SMP-2.30 using GNUPLOT 5.2 graphics.
Numerical routines are extracted from LAPACK and BLAS and
the assessment procedure uses LMDIF from ANL.

Linked with OpenMp for parallel execution
 Warning, no environment variable OCHOME and no help file
 Working directory is: /home/ecappellari/transparant/sciantix-official/regression/test_JOG_MOX/point_10_r_2p7mm
--->OC6:--->OC6: 3E Database file extention is: ".tdb"
Database has  3 elements: CS MO O 
Give the elements to select, finish with empty line
Selected  3 elements: CS MO O 
Select elements /no more/:Selected  3 elements: CS MO O 
3E reading database file: /home/ecappellari/transparant/opencalphad/data/CsMoO_TAFID_2021_Anna.TDB

Out of    82 model parameters    82 have been entered


There are     1 bibliographic references
REF0            '*** Not set by database or user'

--->OC6:--->OC6:--->OC6:--->OC6:--->OC6:--->OC6:--->OC6:--->OC6:Gridmin:    9683 points   1.16E-02 s and      11 clockcycles, T=  979.00
 3Y leaving global_gridmin
Phase change iteration:    14  +LIQUID
Phase change iteration:    15  +LIQUID
Phase change iteration:    16  +LIQUID
Phase change iteration:    17  +LIQUID
MM Too many stable phases at iter  17, phase   8 replaced by   2, T=   979.00
Phase change iteration:    21  -CS2MOO4_S2
Equilibrium result:  49 its,  1.3344E-02 s,     13 cc, GS= -1.0296415E+05 J/mol
--->OC6:--->OC6:--->OC6:--->OC6:--->OC6:Phase change iteration:     4  -GAS
Phase change iteration:     8  +BCC_A2
Phase change iteration:    12  -BCC_A2
Phase change iteration:    13  +BCC_A2
Phase change iteration:    17  +CS7O1
Phase change iteration:    18  +CS7O1
Phase change iteration:    19  +CS7O1
Phase change iteration:    20  +CS7O1
MM Too many stable phases at iter  20, phase   3 replaced by  18, T=   979.00
Phase change iteration:    24  -CS7O1
Phase change iteration:    27  +CS7O1
Phase change iteration:    31  -CS7O1
Phase change iteration:    35  +BCC_A2
MM Removing phase:   18  18#1
Phase change iteration:    53  +GAS
Phase change iteration:    54  +GAS
Phase change iteration:    55  +GAS
Phase change iteration:    56  +GAS
MM Too many stable phases at iter  56, phase   2 replaced by   1, T=   979.00
MM Restoring phase:     18   18  CS7O1
Equilibrium result:  62 its,  2.4440E-03 s,      3 cc, GS= -2.0005003E+00 J/mol
3Y Testing if any gridpoint is below the calculated equilibrium
--->OC6:Axis number /1/: Condition varying along axis:Minimal value /0/: Maximal value /1/: Increment /5900/: --->OC6:--->OC6:Step options? /NORMAL/:  There are            1  start equilibria
 Entering map_startpoint           1
 SMP2A call map_doallines

Line   1 from   1.000000E+05 with: GAS BCC_A2  
Creating a node at     979.00 where LIQUID appears
This is an invariant node
Finishing line with    13 equilibria at T=  979.00, xaxis:  1.4127E+05 

Line   2 from   1.000000E+05 with: GAS BCC_A2  
Terminating line with    2 equilibria at axis limit   1.0000E+05

Line   3 from   1.413347E+05 with: LIQUID BCC_A2  
MM Calculate with activity condition
Equilibria calculated     20
Equilibria calculated     40
Terminating line with   40 equilibria at axis limit   3.3600E+05

Finished step/map with    56 equilibria in   6.7334E-02 CPU s and      67 cc
--->OC6:--->OC6:--->OC6:Warning: global minimizer cannot be used for the current set of conditions
Phase change iteration:     4  +LIQUID
Phase change iteration:     5  +LIQUID
Phase change iteration:     6  +LIQUID
Phase change iteration:     7  +LIQUID
MM Too many stable phases at iter   7, phase   3 replaced by   2, T=   979.00
Phase change iteration:    11  -GAS
Phase change iteration:    15  +BCC_A2
Equilibrium result:  29 its,  1.3420E-03 s,      1 cc, GS= -1.9673302E+00 J/mol
3Y Testing if any gridpoint is below the calculated equilibrium
--->OC6:Equilibrium result:   9 its,  4.4900E-04 s,      0 cc, GS= -1.9673301E+00 J/mol
3Y Testing if any gridpoint is below the calculated equilibrium
--->OC6:Output on file: ./OCoutput_fission_products.DAT
Output unit reset to screen:    6
--->OC6:--->OC6:
[OC output] ./OCoutput_fission_products.DAT
----------------------------------------

%%%%%%%%%% OC output written: 2026-04-20  13h27

Output for equilibrium:   1, DEFAULT_EQUILIBRIUM          2026.04.20
Conditions .................................................:
  1:T=979, 2:P=336000, 3:N(CS)=1.25512E-05, 4:N(MO)=1.66595E-05, 5:MU(O)=
    -664574
 Degrees of freedom are   0

Some global data, reference state SER ......................:
T=    979.00 K (   705.85 C), P=  3.3600E+05 Pa, V=  0.0000E+00 m3
N=   2.9211E-05 moles, B=   3.2665E-03 g, RT=   8.1399E+03 J/mol
G= -1.96733E+00 J, G/N=-6.7350E+04 J/mol, H= 5.8710E-01 J, S= 2.609E-03 J/K

Some data for components ...................................:
Component name    Moles      Mole-fr  Chem.pot/RT  Activities  Ref.state
CS                1.2551E-05  0.42968 -1.2685E+01  3.0959E-06  SER (default)   
MO                1.6660E-05  0.57032 -4.9505E+00  7.0802E-03  SER (default)   
O                 2.0670E-16  0.00000 -8.1644E+01  3.4873E-36  GAS             

Some data for phases .......................................:
Name                Status Moles      Volume    Form.Units Cmp/FU dGm/RT  Comp:
LIQUID.................. E  1.253E-05  0.00E+00  1.25E-05    1.00  0.00E+00  X:
 CS     9.99926E-01  MO     7.37673E-05  O      1.21012E-11

BCC_A2.................. E  1.668E-05  0.00E+00  1.67E-05    1.00  0.00E+00  X:
 MO     9.98778E-01  CS     1.22244E-03  O      3.30066E-12


----------------------------------------

[OC parser] Parsed components
  Cs : moles=1.2551e-05, x=0.42968, mu/RT=-12.685, activity=3.0959e-06, ref=SER (default)
  Mo : moles=1.666e-05, x=0.57032, mu/RT=-4.9505, activity=0.0070802, ref=SER (default)
  O : moles=2.067e-16, x=0, mu/RT=-81.644, activity=3.4873e-36, ref=GAS

[OC parser] Parsed phases
  Phase condensed : moles=1.668e-05, volume=0
    Elements
      Cs = 2.03903e-08
      Mo = 1.66596e-05
      O = 5.5055e-17
    Species
      BCC_A2 : moles=1.668e-05, volume=0
        Cs = 2.03903e-08
        Mo = 1.66596e-05
        O = 5.5055e-17
  Phase liquid : moles=1.253e-05, volume=0
    Elements
      Cs = 1.25291e-05
      Mo = 9.24304e-10
      O = 1.51628e-16
[Thermochemistry] BCC_A2 (condensed, at grain boundary) composition=Cs:0.00122244,Mo:0.998778,O:3.30066e-12 molar_mass=95.9952 g/mol
[Thermochemistry] LIQUID (liquid, at grain boundary) composition=Cs:0.99992623,Mo:7.3767317e-05,O:1.2101203e-11 molar_mass=132.903 g/mol
[ThermochemistryPhase] liquid (at grain boundary) composition=Cs:0.99992623,Mo:7.3767317e-05,O:1.2101203e-11 molar_mass=132.903 g/mol
OpenCalphad attempt for 'matrix' with WARM-START

[OC input] ./OCinput_matrix.OCM
----------------------------------------
r u ./OCoutput_matrix.OCU

set ref o gas * 100000

set c t=979
set c p=404000
set c n(o)=0.664709
set c n(pu)=0.0732934
set c n(u)=0.261998
c e
c w

save u ./OCoutput_matrix Y

l /out=./OCoutput_matrix.DAT r 1

fin
----------------------------------------

3A unfished preparations for XTDB


Open Calphad (OC) software version   6.106 , linked 2026-04-16
with command line monitor version  73

This program is available with a GNU General Public License.
either version 2 of the License, or any later version.
It includes the General Thermodynamic Package, version GTP-3.31,
Hillert's equilibrium calculation algorithm version HMS-3.0 ,
step/map/plot software version SMP-2.30 using GNUPLOT 5.2 graphics.
Numerical routines are extracted from LAPACK and BLAS and
the assessment procedure uses LMDIF from ANL.

Linked with OpenMp for parallel execution
 Warning, no environment variable OCHOME and no help file
 Working directory is: /home/ecappellari/transparant/sciantix-official/regression/test_JOG_MOX/point_10_r_2p7mm
--->OC6:
Read unformatted file: This is a save file for OC version:     OCF-3.20
Generated:  2026.04.20 13h27

 3E reading unformatted:        14778           0           0
3E Addition type   1, Inden-Hillert magn model for BCC_A2
3E Addition type   1, Inden-Hillert magn model for FCC_A1
 3E no experimental data
 3E no coefficient values saved
 3E Read assessment record
 No coefficients allocated
--->OC6:--->OC6:--->OC6:--->OC6:--->OC6:--->OC6:--->OC6:--->OC6:--->OC6:3Y Removed  2 gridpoints by merging
Gridmin:    7483 points   9.32E-03 s and       8 clockcycles, T=  979.00
 3Y leaving global_gridmin
Equilibrium result:  14 its,  9.9200E-03 s,     10 cc, GS= -3.9946978E+05 J/mol
--->OC6:Equilibrium result:   9 its,  3.1300E-04 s,      0 cc, GS= -3.9946978E+05 J/mol
3Y Testing if any gridpoint is below the calculated equilibrium
--->OC6:--->OC6:
Overwriting previous results on ./OCoutput_matrix.OCU
3E allocating workspace:     122160          (   2160,   10000,    2)
 3E saving            3  symbols as texts
 3E used        12112  words out of       122160  for storing static data
 ceqrecsize not implemented          25
 3E Saving an equilibrium record requires     2613       0 words
 3E not storing unused equilibria from:            2
 3E Saving assessment record
 3E No experimental equilibrium range set
 3E allocating assessment head record          48
 3E no coefficients allocated
 3E no work array (assrec%wopt) allocated
Used    14813 words out of   122160,  12.13% for unformatted memory save
Written workspace      59252 bytes unformatted on ./OCoutput_matrix.OCU
--->OC6:--->OC6:Output on file: ./OCoutput_matrix.DAT
Output unit reset to screen:    6
--->OC6:--->OC6:
[OC output] ./OCoutput_matrix.DAT
----------------------------------------

%%%%%%%%%% OC output written: 2026-04-20  13h27

Output for equilibrium:   1, DEFAULT_EQUILIBRIUM          2026.04.20
Conditions .................................................:
  1:T=979, 2:P=404000, 3:N(O)=0.664709, 4:N(PU)=.0732934, 5:N(U)=0.261998
 Degrees of freedom are   0

Some global data, reference state SER ......................:
T=    979.00 K (   705.85 C), P=  4.0400E+05 Pa, V=  0.0000E+00 m3
N=   1.0000E+00 moles, B=   9.0886E+01 g, RT=   8.1399E+03 J/mol
G= -3.99470E+05 J, G/N=-3.9947E+05 J/mol, H=-3.4261E+05 J, S= 5.808E+01 J/K

Some data for components ...................................:
Component name    Moles      Mole-fr  Chem.pot/RT  Activities  Ref.state
O                 6.6471E-01  0.66471 -4.0605E+01  2.3205E-18  GAS             
PU                7.3293E-02  0.07329 -4.0710E+01  2.0885E-18  SER (default)   
U                 2.6200E-01  0.26200 -4.1052E+01  1.4839E-18  SER (default)   

Some data for phases .......................................:
Name                Status Moles      Volume    Form.Units Cmp/FU dGm/RT  Comp:
C1_MO2.................. E  1.000E+00  0.00E+00  3.35E-01    2.98  0.00E+00  X:
 O      6.64709E-01  U      2.61998E-01  PU     7.32934E-02


----------------------------------------

[OC parser] Parsed components
  O : moles=0.66471, x=0.66471, mu/RT=-40.605, activity=2.3205e-18, ref=GAS
  Pu : moles=0.073293, x=0.07329, mu/RT=-40.71, activity=2.0885e-18, ref=SER (default)
  U : moles=0.262, x=0.262, mu/RT=-41.052, activity=1.4839e-18, ref=SER (default)

[OC parser] Parsed phases
  Phase condensed : moles=1, volume=0
    Elements
      O = 1.98083
      Pu = 0.218414
      U = 0.780754
    Species
      C1_MO2 : moles=1, volume=0
        O = 1.98083
        Pu = 0.218414
        U = 0.780754
OpenCalphad attempt for 'at grain boundary' with WARM-START

[OC input] ./OCinput_fission_products.OCM
----------------------------------------
r u ./OCoutput_fission_products.OCU

set ref o gas * 100000

set c t=979
set c p=404000
set c n(cs)=2.16752e-05
set c n(mo)=2.89508e-05
set c n(o)=0.999949
c e
set c n(o)=none
set c mu(o)=-661025

c w

save u ./OCoutput_fission_products Y

l /out=./OCoutput_fission_products.DAT r 1

fin
----------------------------------------

3A unfished preparations for XTDB


Open Calphad (OC) software version   6.106 , linked 2026-04-16
with command line monitor version  73

This program is available with a GNU General Public License.
either version 2 of the License, or any later version.
It includes the General Thermodynamic Package, version GTP-3.31,
Hillert's equilibrium calculation algorithm version HMS-3.0 ,
step/map/plot software version SMP-2.30 using GNUPLOT 5.2 graphics.
Numerical routines are extracted from LAPACK and BLAS and
the assessment procedure uses LMDIF from ANL.

Linked with OpenMp for parallel execution
 Warning, no environment variable OCHOME and no help file
 Working directory is: /home/ecappellari/transparant/sciantix-official/regression/test_JOG_MOX/point_10_r_2p7mm
--->OC6:
Read unformatted file: This is a save file for OC version:     OCF-3.20
Generated:  2026.04.20 13h27

 3E reading unformatted:        16312           0           0
3E Addition type   1, Inden-Hillert magn model for BCC_A2
3E Addition type   1, Inden-Hillert magn model for FCC_A1
3E Addition type   1, Inden-Hillert magn model for HCP_A3
 3E no experimental data
 3E no coefficient values saved
 3E Read assessment record
 No coefficients allocated
--->OC6:--->OC6:--->OC6:--->OC6:--->OC6:--->OC6:--->OC6:--->OC6:--->OC6:
Error codes:   4144     0    50
Message: Degrees of freedom not zero

--->OC6:--->OC6:--->OC6:--->OC6:Phase change iteration:     4  +LIQUID
Equilibrium result:  10 its,  9.9900E-04 s,      1 cc, GS= -3.1961255E+00 J/mol
3Y Testing if any gridpoint is below the calculated equilibrium
 3Y Equilibrium wrong, gridtest found BCC_A2                  
 3Y recalculate with:           38           2          39
 MM recalculating with this phase as stable 2:           38
MM Calculate with activity condition
Phase change iteration:     4  -BCC_A2_CHKD#2
Phase change iteration:     8  +BCC_A2_CHKD#2
Phase change iteration:     9  +BCC_A2_CHKD#2
Phase change iteration:    10  +BCC_A2_CHKD#2
Phase change iteration:    11  +BCC_A2_CHKD#2
MM Too many stable phases at iter  11, phase  26 replaced by   4, T=   979.00
Equilibrium result:  21 its,  2.9397E-02 s,     29 cc, GS= -3.4047518E+00 J/mol
3Y Testing if any gridpoint is below the calculated equilibrium
--->OC6:--->OC6:
Overwriting previous results on ./OCoutput_fission_products.OCU
3E allocating workspace:     123330          (   3330,   10000,    2)
 3E saving            3  symbols as texts
 3E used        12286  words out of       123330  for storing static data
 ceqrecsize not implemented          39
 3E Saving an equilibrium record requires     4092       0 words
 3E not storing unused equilibria from:            2
 3E Saving assessment record
 3E No experimental equilibrium range set
 3E allocating assessment head record          48
 3E no coefficients allocated
 3E no work array (assrec%wopt) allocated
Used    16466 words out of   123330,  13.35% for unformatted memory save
Written workspace      65864 bytes unformatted on ./OCoutput_fission_products.OCU
--->OC6:--->OC6:Output on file: ./OCoutput_fission_products.DAT
Output unit reset to screen:    6
--->OC6:--->OC6:
[OC output] ./OCoutput_fission_products.DAT
----------------------------------------

%%%%%%%%%% OC output written: 2026-04-20  13h27

Output for equilibrium:   1, DEFAULT_EQUILIBRIUM          2026.04.20
Conditions .................................................:
  1:T=979, 2:P=404000, 3:N(CS)=2.16752E-05, 4:N(MO)=2.89508E-05, 5:MU(O)=
    -661025
 Degrees of freedom are   0

Some global data, reference state SER ......................:
T=    979.00 K (   705.85 C), P=  4.0400E+05 Pa, V=  0.0000E+00 m3
N=   5.0626E-05 moles, B=   5.6584E-03 g, RT=   8.1399E+03 J/mol
G= -3.40475E+00 J, G/N=-6.7253E+04 J/mol, H= 1.0172E+00 J, S= 4.517E-03 J/K

Some data for components ...................................:
Component name    Moles      Mole-fr  Chem.pot/RT  Activities  Ref.state
CS                2.1675E-05  0.42814 -1.2685E+01  3.0959E-06  SER (default)   
MO                2.8951E-05  0.57186 -4.9505E+00  7.0802E-03  SER (default)   
O                 3.5757E-16  0.00000 -8.1208E+01  5.3931E-36  GAS             

Some data for phases .......................................:
Name                Status Moles      Volume    Form.Units Cmp/FU dGm/RT  Comp:
LIQUID.................. E  2.164E-05  0.00E+00  2.16E-05    1.00  0.00E+00  X:
 CS     9.99926E-01  MO     7.37837E-05  O      1.21012E-11

BCC_A2_CHKD#2........... E  2.898E-05  0.00E+00  2.90E-05    1.00  0.00E+00  X:
 MO     9.98778E-01  CS     1.22244E-03  O      3.30132E-12


----------------------------------------

[OC parser] Parsed components
  Cs : moles=2.1675e-05, x=0.42814, mu/RT=-12.685, activity=3.0959e-06, ref=SER (default)
  Mo : moles=2.8951e-05, x=0.57186, mu/RT=-4.9505, activity=0.0070802, ref=SER (default)
  O : moles=3.5757e-16, x=0, mu/RT=-81.208, activity=5.3931e-36, ref=GAS

[OC parser] Parsed phases
  Phase condensed : moles=2.898e-05, volume=0
    Elements
      Cs = 3.54263e-08
      Mo = 2.89446e-05
      O = 9.56723e-17
    Species
      BCC_A2 : moles=2.898e-05, volume=0
        Cs = 3.54263e-08
        Mo = 2.89446e-05
        O = 9.56723e-17
  Phase liquid : moles=2.164e-05, volume=0
    Elements
      Cs = 2.16384e-05
      Mo = 1.59668e-09
      O = 2.6187e-16
[ThermochemistryPhase] liquid (at grain boundary) composition=Cs:0.99992622,Mo:7.3783716e-05,O:1.2101203e-11 molar_mass=132.903 g/mol
OpenCalphad attempt for 'matrix' with WARM-START

[OC input] ./OCinput_matrix.OCM
----------------------------------------
r u ./OCoutput_matrix.OCU

set ref o gas * 100000

set c t=979
set c p=472000
set c n(o)=0.66499
set c n(pu)=0.0732016
set c n(u)=0.261808
c e
c w

save u ./OCoutput_matrix Y

l /out=./OCoutput_matrix.DAT r 1

fin
----------------------------------------

3A unfished preparations for XTDB


Open Calphad (OC) software version   6.106 , linked 2026-04-16
with command line monitor version  73

This program is available with a GNU General Public License.
either version 2 of the License, or any later version.
It includes the General Thermodynamic Package, version GTP-3.31,
Hillert's equilibrium calculation algorithm version HMS-3.0 ,
step/map/plot software version SMP-2.30 using GNUPLOT 5.2 graphics.
Numerical routines are extracted from LAPACK and BLAS and
the assessment procedure uses LMDIF from ANL.

Linked with OpenMp for parallel execution
 Warning, no environment variable OCHOME and no help file
 Working directory is: /home/ecappellari/transparant/sciantix-official/regression/test_JOG_MOX/point_10_r_2p7mm
--->OC6:
Read unformatted file: This is a save file for OC version:     OCF-3.20
Generated:  2026.04.20 13h27

 3E reading unformatted:        14778           0           0
3E Addition type   1, Inden-Hillert magn model for BCC_A2
3E Addition type   1, Inden-Hillert magn model for FCC_A1
 3E no experimental data
 3E no coefficient values saved
 3E Read assessment record
 No coefficients allocated
--->OC6:--->OC6:--->OC6:--->OC6:--->OC6:--->OC6:--->OC6:--->OC6:--->OC6:3Y Removed  1 gridpoints by merging
 3Y Composition set(s) created:            1
Gridmin:    7483 points   1.65E-02 s and      14 clockcycles, T=  979.00
 3Y leaving global_gridmin
Phase change iteration:     4  -C1_MO2_AUTO#2
Equilibrium result:  19 its,  1.8213E-02 s,     18 cc, GS= -3.9949629E+05 J/mol
--->OC6:Equilibrium result:   9 its,  7.4900E-04 s,      1 cc, GS= -3.9949627E+05 J/mol
3Y Testing if any gridpoint is below the calculated equilibrium
--->OC6:--->OC6:
Overwriting previous results on ./OCoutput_matrix.OCU
3E allocating workspace:     122160          (   2160,   10000,    2)
 3E saving            3  symbols as texts
 3E used        12117  words out of       122160  for storing static data
 ceqrecsize not implemented          26
 3E Saving an equilibrium record requires     2853       0 words
 3E not storing unused equilibria from:            2
 3E Saving assessment record
 3E No experimental equilibrium range set
 3E allocating assessment head record          48
 3E no coefficients allocated
 3E no work array (assrec%wopt) allocated
Used    15058 words out of   122160,  12.33% for unformatted memory save
Written workspace      60232 bytes unformatted on ./OCoutput_matrix.OCU
--->OC6:--->OC6:Output on file: ./OCoutput_matrix.DAT
Output unit reset to screen:    6
--->OC6:--->OC6:
[OC output] ./OCoutput_matrix.DAT
----------------------------------------

%%%%%%%%%% OC output written: 2026-04-20  13h27

Output for equilibrium:   1, DEFAULT_EQUILIBRIUM          2026.04.20
Conditions .................................................:
  1:T=979, 2:P=472000, 3:N(O)=0.66499, 4:N(PU)=.0732016, 5:N(U)=0.261808
 Degrees of freedom are   0

Some global data, reference state SER ......................:
T=    979.00 K (   705.85 C), P=  4.7200E+05 Pa, V=  0.0000E+00 m3
N=   1.0000E+00 moles, B=   9.0823E+01 g, RT=   8.1399E+03 J/mol
G= -3.99496E+05 J, G/N=-3.9950E+05 J/mol, H=-3.4271E+05 J, S= 5.800E+01 J/K

Some data for components ...................................:
Component name    Moles      Mole-fr  Chem.pot/RT  Activities  Ref.state
O                 6.6499E-01  0.66499 -4.0323E+01  3.0752E-18  GAS             
PU                7.3202E-02  0.07320 -4.1409E+01  1.0384E-18  SER (default)   
U                 2.6181E-01  0.26181 -4.1769E+01  7.2453E-19  SER (default)   

Some data for phases .......................................:
Name                Status Moles      Volume    Form.Units Cmp/FU dGm/RT  Comp:
C1_MO2#1................ E  1.000E+00  0.00E+00  3.35E-01    2.98  0.00E+00  X:
 O      6.64990E-01  U      2.61808E-01  PU     7.32016E-02


----------------------------------------

[OC parser] Parsed components
  O : moles=0.66499, x=0.66499, mu/RT=-40.323, activity=3.0752e-18, ref=GAS
  Pu : moles=0.073202, x=0.0732, mu/RT=-41.409, activity=1.0384e-18, ref=SER (default)
  U : moles=0.26181, x=0.26181, mu/RT=-41.769, activity=7.2453e-19, ref=SER (default)

[OC parser] Parsed phases
  Phase condensed : moles=1, volume=0
    Elements
      O = 1.98167
      Pu = 0.218141
      U = 0.780188
    Species
      C1_MO2 : moles=1, volume=0
        O = 1.98167
        Pu = 0.218141
        U = 0.780188
OpenCalphad attempt for 'at grain boundary' with WARM-START

[OC input] ./OCinput_fission_products.OCM
----------------------------------------
r u ./OCoutput_fission_products.OCU

set ref o gas * 100000

set c t=979
set c p=472000
set c n(cs)=3.20951e-05
set c n(mo)=4.32337e-05
set c n(o)=0.999925
c e
set c n(o)=none
set c mu(o)=-656434

c w

save u ./OCoutput_fission_products Y

l /out=./OCoutput_fission_products.DAT r 1

fin
----------------------------------------

3A unfished preparations for XTDB


Open Calphad (OC) software version   6.106 , linked 2026-04-16
with command line monitor version  73

This program is available with a GNU General Public License.
either version 2 of the License, or any later version.
It includes the General Thermodynamic Package, version GTP-3.31,
Hillert's equilibrium calculation algorithm version HMS-3.0 ,
step/map/plot software version SMP-2.30 using GNUPLOT 5.2 graphics.
Numerical routines are extracted from LAPACK and BLAS and
the assessment procedure uses LMDIF from ANL.

Linked with OpenMp for parallel execution
 Warning, no environment variable OCHOME and no help file
 Working directory is: /home/ecappellari/transparant/sciantix-official/regression/test_JOG_MOX/point_10_r_2p7mm
--->OC6:
Read unformatted file: This is a save file for OC version:     OCF-3.20
Generated:  2026.04.20 13h27

 3E reading unformatted:        16431           0           0
3E Addition type   1, Inden-Hillert magn model for BCC_A2
3E Addition type   1, Inden-Hillert magn model for FCC_A1
3E Addition type   1, Inden-Hillert magn model for HCP_A3
 3E no experimental data
 3E no coefficient values saved
 3E Read assessment record
 No coefficients allocated
--->OC6:--->OC6:--->OC6:--->OC6:--->OC6:--->OC6:--->OC6:--->OC6:--->OC6:
Error codes:   4144     0    50
Message: Degrees of freedom not zero

--->OC6:--->OC6:--->OC6:--->OC6:Equilibrium result:   9 its,  7.0400E-04 s,      1 cc, GS= -5.0562394E+00 J/mol
3Y Testing if any gridpoint is below the calculated equilibrium
--->OC6:--->OC6:
Overwriting previous results on ./OCoutput_fission_products.OCU
3E allocating workspace:     123330          (   3330,   10000,    2)
 3E saving            3  symbols as texts
 3E used        12286  words out of       123330  for storing static data
 ceqrecsize not implemented          39
 3E Saving an equilibrium record requires     4092       0 words
 3E not storing unused equilibria from:            2
 3E Saving assessment record
 3E No experimental equilibrium range set
 3E allocating assessment head record          48
 3E no coefficients allocated
 3E no work array (assrec%wopt) allocated
Used    16466 words out of   123330,  13.35% for unformatted memory save
Written workspace      65864 bytes unformatted on ./OCoutput_fission_products.OCU
--->OC6:--->OC6:Output on file: ./OCoutput_fission_products.DAT
Output unit reset to screen:    6
--->OC6:--->OC6:
[OC output] ./OCoutput_fission_products.DAT
----------------------------------------

%%%%%%%%%% OC output written: 2026-04-20  13h27

Output for equilibrium:   1, DEFAULT_EQUILIBRIUM          2026.04.20
Conditions .................................................:
  1:T=979, 2:P=472000, 3:N(CS)=3.20951E-05, 4:N(MO)=4.32337E-05, 5:MU(O)=
    -656434
 Degrees of freedom are   0

Some global data, reference state SER ......................:
T=    979.00 K (   705.85 C), P=  4.7200E+05 Pa, V=  0.0000E+00 m3
N=   7.5329E-05 moles, B=   8.4136E-03 g, RT=   8.1399E+03 J/mol
G= -5.05624E+00 J, G/N=-6.7122E+04 J/mol, H= 1.5128E+00 J, S= 6.710E-03 J/K

Some data for components ...................................:
Component name    Moles      Mole-fr  Chem.pot/RT  Activities  Ref.state
CS                3.2095E-05  0.42607 -1.2685E+01  3.0959E-06  SER (default)   
MO                4.3234E-05  0.57393 -4.9505E+00  7.0802E-03  SER (default)   
O                 5.3067E-16  0.00000 -8.0644E+01  9.4795E-36  GAS             

Some data for phases .......................................:
Name                Status Moles      Volume    Form.Units Cmp/FU dGm/RT  Comp:
LIQUID.................. E  3.204E-05  0.00E+00  3.20E-05    1.00  0.00E+00  X:
 CS     9.99926E-01  MO     7.37674E-05  O      1.21012E-11

BCC_A2_CHKD#2........... E  4.328E-05  0.00E+00  4.33E-05    1.00  0.00E+00  X:
 MO     9.98778E-01  CS     1.22244E-03  O      3.30132E-12


----------------------------------------

[OC parser] Parsed components
  Cs : moles=3.2095e-05, x=0.42607, mu/RT=-12.685, activity=3.0959e-06, ref=SER (default)
  Mo : moles=4.3234e-05, x=0.57393, mu/RT=-4.9505, activity=0.0070802, ref=SER (default)
  O : moles=5.3067e-16, x=0, mu/RT=-80.644, activity=9.4795e-36, ref=GAS

[OC parser] Parsed phases
  Phase condensed : moles=4.328e-05, volume=0
    Elements
      Cs = 5.29072e-08
      Mo = 4.32271e-05
      O = 1.42881e-16
    Species
      BCC_A2 : moles=4.328e-05, volume=0
        Cs = 5.29072e-08
        Mo = 4.32271e-05
        O = 1.42881e-16
  Phase liquid : moles=3.204e-05, volume=0
    Elements
      Cs = 3.20376e-05
      Mo = 2.36351e-09
      O = 3.87722e-16
[ThermochemistryPhase] liquid (at grain boundary) composition=Cs:0.99992623,Mo:7.3767417e-05,O:1.2101203e-11 molar_mass=132.903 g/mol
OpenCalphad attempt for 'matrix' with WARM-START

[OC input] ./OCinput_matrix.OCM
----------------------------------------
r u ./OCoutput_matrix.OCU

set ref o gas * 100000

set c t=979
set c p=540000
set c n(o)=0.665272
set c n(pu)=0.0731098
set c n(u)=0.261618
c e
c w

save u ./OCoutput_matrix Y

l /out=./OCoutput_matrix.DAT r 1

fin
----------------------------------------

3A unfished preparations for XTDB


Open Calphad (OC) software version   6.106 , linked 2026-04-16
with command line monitor version  73

This program is available with a GNU General Public License.
either version 2 of the License, or any later version.
It includes the General Thermodynamic Package, version GTP-3.31,
Hillert's equilibrium calculation algorithm version HMS-3.0 ,
step/map/plot software version SMP-2.30 using GNUPLOT 5.2 graphics.
Numerical routines are extracted from LAPACK and BLAS and
the assessment procedure uses LMDIF from ANL.

Linked with OpenMp for parallel execution
 Warning, no environment variable OCHOME and no help file
 Working directory is: /home/ecappellari/transparant/sciantix-official/regression/test_JOG_MOX/point_10_r_2p7mm
--->OC6:
Read unformatted file: This is a save file for OC version:     OCF-3.20
Generated:  2026.04.20 13h27

 3E reading unformatted:        15023           0           0
3E Addition type   1, Inden-Hillert magn model for BCC_A2
3E Addition type   1, Inden-Hillert magn model for FCC_A1
 3E no experimental data
 3E no coefficient values saved
 3E Read assessment record
 No coefficients allocated
--->OC6:--->OC6:--->OC6:--->OC6:--->OC6:--->OC6:--->OC6:--->OC6:--->OC6:3Y Removed  1 gridpoints by merging
Gridmin:    7483 points   1.83E-02 s and      15 clockcycles, T=  979.00
 3Y leaving global_gridmin
Phase change iteration:     4  -C1_MO2_AUTO#2
Equilibrium result:  19 its,  1.9515E-02 s,     20 cc, GS= -3.9952054E+05 J/mol
--->OC6:Equilibrium result:   9 its,  4.4200E-04 s,      0 cc, GS= -3.9952052E+05 J/mol
3Y Testing if any gridpoint is below the calculated equilibrium
--->OC6:--->OC6:
Overwriting previous results on ./OCoutput_matrix.OCU
3E allocating workspace:     122160          (   2160,   10000,    2)
 3E saving            3  symbols as texts
 3E used        12117  words out of       122160  for storing static data
 ceqrecsize not implemented          26
 3E Saving an equilibrium record requires     2854       0 words
 3E not storing unused equilibria from:            2
 3E Saving assessment record
 3E No experimental equilibrium range set
 3E allocating assessment head record          48
 3E no coefficients allocated
 3E no work array (assrec%wopt) allocated
Used    15059 words out of   122160,  12.33% for unformatted memory save
Written workspace      60236 bytes unformatted on ./OCoutput_matrix.OCU
--->OC6:--->OC6:Output on file: ./OCoutput_matrix.DAT
Output unit reset to screen:    6
--->OC6:--->OC6:
[OC output] ./OCoutput_matrix.DAT
----------------------------------------

%%%%%%%%%% OC output written: 2026-04-20  13h27

Output for equilibrium:   1, DEFAULT_EQUILIBRIUM          2026.04.20
Conditions .................................................:
  1:T=979, 2:P=540000, 3:N(O)=0.665272, 4:N(PU)=.0731098, 5:N(U)=0.261618
 Degrees of freedom are   0

Some global data, reference state SER ......................:
T=    979.00 K (   705.85 C), P=  5.4000E+05 Pa, V=  0.0000E+00 m3
N=   1.0000E+00 moles, B=   9.0760E+01 g, RT=   8.1399E+03 J/mol
G= -3.99521E+05 J, G/N=-3.9952E+05 J/mol, H=-3.4282E+05 J, S= 5.792E+01 J/K

Some data for components ...................................:
Component name    Moles      Mole-fr  Chem.pot/RT  Activities  Ref.state
O                 6.6527E-01  0.66527 -3.9966E+01  4.3965E-18  GAS             
PU                7.3110E-02  0.07311 -4.2238E+01  4.5310E-19  SER (default)   
U                 2.6162E-01  0.26162 -4.2616E+01  3.1042E-19  SER (default)   

Some data for phases .......................................:
Name                Status Moles      Volume    Form.Units Cmp/FU dGm/RT  Comp:
C1_MO2#1................ E  1.000E+00  0.00E+00  3.35E-01    2.99  0.00E+00  X:
 O      6.65272E-01  U      2.61618E-01  PU     7.31098E-02


----------------------------------------

[OC parser] Parsed components
  O : moles=0.66527, x=0.66527, mu/RT=-39.966, activity=4.3965e-18, ref=GAS
  Pu : moles=0.07311, x=0.07311, mu/RT=-42.238, activity=4.531e-19, ref=SER (default)
  U : moles=0.26162, x=0.26162, mu/RT=-42.616, activity=3.1042e-19, ref=SER (default)

[OC parser] Parsed phases
  Phase condensed : moles=1, volume=0
    Elements
      O = 1.98916
      Pu = 0.218598
      U = 0.782238
    Species
      C1_MO2 : moles=1, volume=0
        O = 1.98916
        Pu = 0.218598
        U = 0.782238
OpenCalphad attempt for 'at grain boundary' with WARM-START

[OC input] ./OCinput_fission_products.OCM
----------------------------------------
r u ./OCoutput_fission_products.OCU

set ref o gas * 100000

set c t=979
set c p=540000
set c n(cs)=4.40724e-05
set c n(mo)=5.92468e-05
set c n(o)=0.999897
c e
set c n(o)=none
set c mu(o)=-650622

c w

save u ./OCoutput_fission_products Y

l /out=./OCoutput_fission_products.DAT r 1

fin
----------------------------------------

3A unfished preparations for XTDB


Open Calphad (OC) software version   6.106 , linked 2026-04-16
with command line monitor version  73

This program is available with a GNU General Public License.
either version 2 of the License, or any later version.
It includes the General Thermodynamic Package, version GTP-3.31,
Hillert's equilibrium calculation algorithm version HMS-3.0 ,
step/map/plot software version SMP-2.30 using GNUPLOT 5.2 graphics.
Numerical routines are extracted from LAPACK and BLAS and
the assessment procedure uses LMDIF from ANL.

Linked with OpenMp for parallel execution
 Warning, no environment variable OCHOME and no help file
 Working directory is: /home/ecappellari/transparant/sciantix-official/regression/test_JOG_MOX/point_10_r_2p7mm
--->OC6:
Read unformatted file: This is a save file for OC version:     OCF-3.20
Generated:  2026.04.20 13h27

 3E reading unformatted:        16431           0           0
3E Addition type   1, Inden-Hillert magn model for BCC_A2
3E Addition type   1, Inden-Hillert magn model for FCC_A1
3E Addition type   1, Inden-Hillert magn model for HCP_A3
 3E no experimental data
 3E no coefficient values saved
 3E Read assessment record
 No coefficients allocated
--->OC6:--->OC6:--->OC6:--->OC6:--->OC6:--->OC6:--->OC6:--->OC6:--->OC6:
Error codes:   4144     0    50
Message: Degrees of freedom not zero

--->OC6:--->OC6:--->OC6:--->OC6:Equilibrium result:   9 its,  9.5400E-04 s,      1 cc, GS= -6.9382621E+00 J/mol
3Y Testing if any gridpoint is below the calculated equilibrium
--->OC6:--->OC6:
Overwriting previous results on ./OCoutput_fission_products.OCU
3E allocating workspace:     123330          (   3330,   10000,    2)
 3E saving            3  symbols as texts
 3E used        12286  words out of       123330  for storing static data
 ceqrecsize not implemented          39
 3E Saving an equilibrium record requires     4092       0 words
 3E not storing unused equilibria from:            2
 3E Saving assessment record
 3E No experimental equilibrium range set
 3E allocating assessment head record          48
 3E no coefficients allocated
 3E no work array (assrec%wopt) allocated
Used    16466 words out of   123330,  13.35% for unformatted memory save
Written workspace      65864 bytes unformatted on ./OCoutput_fission_products.OCU
--->OC6:--->OC6:Output on file: ./OCoutput_fission_products.DAT
Output unit reset to screen:    6
--->OC6:--->OC6:
[OC output] ./OCoutput_fission_products.DAT
----------------------------------------

%%%%%%%%%% OC output written: 2026-04-20  13h27

Output for equilibrium:   1, DEFAULT_EQUILIBRIUM          2026.04.20
Conditions .................................................:
  1:T=979, 2:P=540000, 3:N(CS)=4.40724E-05, 4:N(MO)=5.92468E-05, 5:MU(O)=
    -650622
 Degrees of freedom are   0

Some global data, reference state SER ......................:
T=    979.00 K (   705.85 C), P=  5.4000E+05 Pa, V=  0.0000E+00 m3
N=   1.0332E-04 moles, B=   1.1542E-02 g, RT=   8.1399E+03 J/mol
G= -6.93826E+00 J, G/N=-6.7154E+04 J/mol, H= 2.0751E+00 J, S= 9.207E-03 J/K

Some data for components ...................................:
Component name    Moles      Mole-fr  Chem.pot/RT  Activities  Ref.state
CS                4.4072E-05  0.42657 -1.2685E+01  3.0959E-06  SER (default)   
MO                5.9247E-05  0.57343 -4.9505E+00  7.0802E-03  SER (default)   
O                 7.2831E-16  0.00000 -7.9930E+01  1.9359E-35  GAS             

Some data for phases .......................................:
Name                Status Moles      Volume    Form.Units Cmp/FU dGm/RT  Comp:
LIQUID.................. E  4.400E-05  0.00E+00  4.40E-05    1.00  0.00E+00  X:
 CS     9.99926E-01  MO     7.37673E-05  O      1.21012E-11

BCC_A2_CHKD#2........... E  5.932E-05  0.00E+00  5.93E-05    1.00  0.00E+00  X:
 MO     9.98778E-01  CS     1.22244E-03  O      3.30132E-12


----------------------------------------

[OC parser] Parsed components
  Cs : moles=4.4072e-05, x=0.42657, mu/RT=-12.685, activity=3.0959e-06, ref=SER (default)
  Mo : moles=5.9247e-05, x=0.57343, mu/RT=-4.9505, activity=0.0070802, ref=SER (default)
  O : moles=7.2831e-16, x=0, mu/RT=-79.93, activity=1.9359e-35, ref=GAS

[OC parser] Parsed phases
  Phase condensed : moles=5.932e-05, volume=0
    Elements
      Cs = 7.25151e-08
      Mo = 5.92475e-05
      O = 1.95834e-16
    Species
      BCC_A2 : moles=5.932e-05, volume=0
        Cs = 7.25151e-08
        Mo = 5.92475e-05
        O = 1.95834e-16
  Phase liquid : moles=4.4e-05, volume=0
    Elements
      Cs = 4.39967e-05
      Mo = 3.24576e-09
      O = 5.32453e-16
[ThermochemistryPhase] liquid (at grain boundary) composition=Cs:0.99992623,Mo:7.3767317e-05,O:1.2101203e-11 molar_mass=132.903 g/mol
OpenCalphad attempt for 'matrix' with WARM-START

[OC input] ./OCinput_matrix.OCM
----------------------------------------
r u ./OCoutput_matrix.OCU

set ref o gas * 100000

set c t=979
set c p=608000
set c n(o)=0.665554
set c n(pu)=0.0730179
set c n(u)=0.261428
c e
c w

save u ./OCoutput_matrix Y

l /out=./OCoutput_matrix.DAT r 1

fin
----------------------------------------

3A unfished preparations for XTDB


Open Calphad (OC) software version   6.106 , linked 2026-04-16
with command line monitor version  73

This program is available with a GNU General Public License.
either version 2 of the License, or any later version.
It includes the General Thermodynamic Package, version GTP-3.31,
Hillert's equilibrium calculation algorithm version HMS-3.0 ,
step/map/plot software version SMP-2.30 using GNUPLOT 5.2 graphics.
Numerical routines are extracted from LAPACK and BLAS and
the assessment procedure uses LMDIF from ANL.

Linked with OpenMp for parallel execution
 Warning, no environment variable OCHOME and no help file
 Working directory is: /home/ecappellari/transparant/sciantix-official/regression/test_JOG_MOX/point_10_r_2p7mm
--->OC6:
Read unformatted file: This is a save file for OC version:     OCF-3.20
Generated:  2026.04.20 13h27

 3E reading unformatted:        15024           0           0
3E Addition type   1, Inden-Hillert magn model for BCC_A2
3E Addition type   1, Inden-Hillert magn model for FCC_A1
 3E no experimental data
 3E no coefficient values saved
 3E Read assessment record
 No coefficients allocated
--->OC6:--->OC6:--->OC6:--->OC6:--->OC6:--->OC6:--->OC6:--->OC6:--->OC6:3Y Removed  1 gridpoints by merging
Gridmin:    7483 points   1.09E-02 s and      10 clockcycles, T=  979.00
 3Y leaving global_gridmin
Phase change iteration:     4  -C1_MO2_AUTO#2
Equilibrium result:  19 its,  1.2942E-02 s,     13 cc, GS= -3.9954156E+05 J/mol
--->OC6:Equilibrium result:   9 its,  7.9800E-04 s,      1 cc, GS= -3.9954154E+05 J/mol
3Y Testing if any gridpoint is below the calculated equilibrium
--->OC6:--->OC6:
Overwriting previous results on ./OCoutput_matrix.OCU
3E allocating workspace:     122160          (   2160,   10000,    2)
 3E saving            3  symbols as texts
 3E used        12117  words out of       122160  for storing static data
 ceqrecsize not implemented          26
 3E Saving an equilibrium record requires     2854       0 words
 3E not storing unused equilibria from:            2
 3E Saving assessment record
 3E No experimental equilibrium range set
 3E allocating assessment head record          48
 3E no coefficients allocated
 3E no work array (assrec%wopt) allocated
Used    15059 words out of   122160,  12.33% for unformatted memory save
Written workspace      60236 bytes unformatted on ./OCoutput_matrix.OCU
--->OC6:--->OC6:Output on file: ./OCoutput_matrix.DAT
Output unit reset to screen:    6
--->OC6:--->OC6:
[OC output] ./OCoutput_matrix.DAT
----------------------------------------

%%%%%%%%%% OC output written: 2026-04-20  13h27

Output for equilibrium:   1, DEFAULT_EQUILIBRIUM          2026.04.20
Conditions .................................................:
  1:T=979, 2:P=608000, 3:N(O)=0.665554, 4:N(PU)=.0730179, 5:N(U)=0.261428
 Degrees of freedom are   0

Some global data, reference state SER ......................:
T=    979.00 K (   705.85 C), P=  6.0800E+05 Pa, V=  0.0000E+00 m3
N=   1.0000E+00 moles, B=   9.0697E+01 g, RT=   8.1399E+03 J/mol
G= -3.99542E+05 J, G/N=-3.9954E+05 J/mol, H=-3.4292E+05 J, S= 5.784E+01 J/K

Some data for components ...................................:
Component name    Moles      Mole-fr  Chem.pot/RT  Activities  Ref.state
O                 6.6555E-01  0.66555 -3.9513E+01  6.9166E-18  GAS             
PU                7.3018E-02  0.07302 -4.3243E+01  1.6593E-19  SER (default)   
U                 2.6143E-01  0.26143 -4.3640E+01  1.1158E-19  SER (default)   

Some data for phases .......................................:
Name                Status Moles      Volume    Form.Units Cmp/FU dGm/RT  Comp:
C1_MO2#1................ E  1.000E+00  0.00E+00  3.34E-01    2.99  0.00E+00  X:
 O      6.65554E-01  U      2.61428E-01  PU     7.30179E-02


----------------------------------------

[OC parser] Parsed components
  O : moles=0.66555, x=0.66555, mu/RT=-39.513, activity=6.9166e-18, ref=GAS
  Pu : moles=0.073018, x=0.07302, mu/RT=-43.243, activity=1.6593e-19, ref=SER (default)
  U : moles=0.26143, x=0.26143, mu/RT=-43.64, activity=1.1158e-19, ref=SER (default)

[OC parser] Parsed phases
  Phase condensed : moles=1, volume=0
    Elements
      O = 1.99001
      Pu = 0.218324
      U = 0.78167
    Species
      C1_MO2 : moles=1, volume=0
        O = 1.99001
        Pu = 0.218324
        U = 0.78167
OpenCalphad attempt for 'at grain boundary' with WARM-START

[OC input] ./OCinput_fission_products.OCM
----------------------------------------
r u ./OCoutput_fission_products.OCU

set ref o gas * 100000

set c t=979
set c p=608000
set c n(cs)=5.72495e-05
set c n(mo)=7.68063e-05
set c n(o)=0.999866
c e
set c n(o)=none
set c mu(o)=-643248

c w

save u ./OCoutput_fission_products Y

l /out=./OCoutput_fission_products.DAT r 1

fin
----------------------------------------

3A unfished preparations for XTDB


Open Calphad (OC) software version   6.106 , linked 2026-04-16
with command line monitor version  73

This program is available with a GNU General Public License.
either version 2 of the License, or any later version.
It includes the General Thermodynamic Package, version GTP-3.31,
Hillert's equilibrium calculation algorithm version HMS-3.0 ,
step/map/plot software version SMP-2.30 using GNUPLOT 5.2 graphics.
Numerical routines are extracted from LAPACK and BLAS and
the assessment procedure uses LMDIF from ANL.

Linked with OpenMp for parallel execution
 Warning, no environment variable OCHOME and no help file
 Working directory is: /home/ecappellari/transparant/sciantix-official/regression/test_JOG_MOX/point_10_r_2p7mm
--->OC6:
Read unformatted file: This is a save file for OC version:     OCF-3.20
Generated:  2026.04.20 13h27

 3E reading unformatted:        16431           0           0
3E Addition type   1, Inden-Hillert magn model for BCC_A2
3E Addition type   1, Inden-Hillert magn model for FCC_A1
3E Addition type   1, Inden-Hillert magn model for HCP_A3
 3E no experimental data
 3E no coefficient values saved
 3E Read assessment record
 No coefficients allocated
--->OC6:--->OC6:--->OC6:--->OC6:--->OC6:--->OC6:--->OC6:--->OC6:--->OC6:
Error codes:   4144     0    50
Message: Degrees of freedom not zero

--->OC6:--->OC6:--->OC6:--->OC6:Equilibrium result:   9 its,  4.5600E-04 s,      0 cc, GS= -9.0064882E+00 J/mol
3Y Testing if any gridpoint is below the calculated equilibrium
--->OC6:--->OC6:
Overwriting previous results on ./OCoutput_fission_products.OCU
3E allocating workspace:     123330          (   3330,   10000,    2)
 3E saving            3  symbols as texts
 3E used        12286  words out of       123330  for storing static data
 ceqrecsize not implemented          39
 3E Saving an equilibrium record requires     4092       0 words
 3E not storing unused equilibria from:            2
 3E Saving assessment record
 3E No experimental equilibrium range set
 3E allocating assessment head record          48
 3E no coefficients allocated
 3E no work array (assrec%wopt) allocated
Used    16466 words out of   123330,  13.35% for unformatted memory save
Written workspace      65864 bytes unformatted on ./OCoutput_fission_products.OCU
--->OC6:--->OC6:Output on file: ./OCoutput_fission_products.DAT
Output unit reset to screen:    6
--->OC6:--->OC6:
[OC output] ./OCoutput_fission_products.DAT
----------------------------------------

%%%%%%%%%% OC output written: 2026-04-20  13h27

Output for equilibrium:   1, DEFAULT_EQUILIBRIUM          2026.04.20
Conditions .................................................:
  1:T=979, 2:P=608000, 3:N(CS)=5.72495E-05, 4:N(MO)=7.68063E-05, 5:MU(O)=
    -643248
 Degrees of freedom are   0

Some global data, reference state SER ......................:
T=    979.00 K (   705.85 C), P=  6.0800E+05 Pa, V=  0.0000E+00 m3
N=   1.3406E-04 moles, B=   1.4978E-02 g, RT=   8.1399E+03 J/mol
G= -9.00649E+00 J, G/N=-6.7185E+04 J/mol, H= 2.6928E+00 J, S= 1.195E-02 J/K

Some data for components ...................................:
Component name    Moles      Mole-fr  Chem.pot/RT  Activities  Ref.state
CS                5.7249E-05  0.42706 -1.2685E+01  3.0959E-06  SER (default)   
MO                7.6806E-05  0.57294 -4.9505E+00  7.0802E-03  SER (default)   
O                 9.4556E-16  0.00000 -7.9024E+01  4.7897E-35  GAS             

Some data for phases .......................................:
Name                Status Moles      Volume    Form.Units Cmp/FU dGm/RT  Comp:
LIQUID.................. E  5.716E-05  0.00E+00  5.71E-05    1.00  0.00E+00  X:
 CS     9.99926E-01  MO     7.37673E-05  O      1.21012E-11

BCC_A2_CHKD#2........... E  7.690E-05  0.00E+00  7.69E-05    1.00  0.00E+00  X:
 MO     9.98778E-01  CS     1.22244E-03  O      3.30132E-12


----------------------------------------

[OC parser] Parsed components
  Cs : moles=5.7249e-05, x=0.42706, mu/RT=-12.685, activity=3.0959e-06, ref=SER (default)
  Mo : moles=7.6806e-05, x=0.57294, mu/RT=-4.9505, activity=0.0070802, ref=SER (default)
  O : moles=9.4556e-16, x=0, mu/RT=-79.024, activity=4.7897e-35, ref=GAS

[OC parser] Parsed phases
  Phase condensed : moles=7.69e-05, volume=0
    Elements
      Cs = 9.40056e-08
      Mo = 7.6806e-05
      O = 2.53872e-16
    Species
      BCC_A2 : moles=7.69e-05, volume=0
        Cs = 9.40056e-08
        Mo = 7.6806e-05
        O = 2.53872e-16
  Phase liquid : moles=5.716e-05, volume=0
    Elements
      Cs = 5.71558e-05
      Mo = 4.21654e-09
      O = 6.91705e-16
[ThermochemistryPhase] liquid (at grain boundary) composition=Cs:0.99992623,Mo:7.3767317e-05,O:1.2101203e-11 molar_mass=132.903 g/mol
OpenCalphad attempt for 'matrix' with WARM-START

[OC input] ./OCinput_matrix.OCM
----------------------------------------
r u ./OCoutput_matrix.OCU

set ref o gas * 100000

set c t=979
set c p=676000
set c n(o)=0.665836
set c n(pu)=0.0729258
set c n(u)=0.261238
c e
c w

save u ./OCoutput_matrix Y

l /out=./OCoutput_matrix.DAT r 1

fin
----------------------------------------

3A unfished preparations for XTDB


Open Calphad (OC) software version   6.106 , linked 2026-04-16
with command line monitor version  73

This program is available with a GNU General Public License.
either version 2 of the License, or any later version.
It includes the General Thermodynamic Package, version GTP-3.31,
Hillert's equilibrium calculation algorithm version HMS-3.0 ,
step/map/plot software version SMP-2.30 using GNUPLOT 5.2 graphics.
[...]
Warning: No composition information available for thermochemistry variable CS2MOO4_S1 (condensed, at grain boundary). Molar mass cannot be computed and will be returned as zero.
Warning: No composition information available for thermochemistry variable CS2O1 (condensed, at grain boundary). Molar mass cannot be computed and will be returned as zero.
Warning: No composition information available for thermochemistry variable CS2O2 (condensed, at grain boundary). Molar mass cannot be computed and will be returned as zero.
Warning: No composition information available for thermochemistry variable CS3O (condensed, at grain boundary). Molar mass cannot be computed and will be returned as zero.
Warning: No composition information available for thermochemistry variable CS4O (condensed, at grain boundary). Molar mass cannot be computed and will be returned as zero.
Warning: No composition information available for thermochemistry variable CS7O1 (condensed, at grain boundary). Molar mass cannot be computed and will be returned as zero.
Warning: No composition information available for thermochemistry variable CS7O2 (condensed, at grain boundary). Molar mass cannot be computed and will be returned as zero.
Warning: No composition information available for thermochemistry variable CSO2 (condensed, at grain boundary). Molar mass cannot be computed and will be returned as zero.
Warning: No composition information available for thermochemistry variable CSO3 (condensed, at grain boundary). Molar mass cannot be computed and will be returned as zero.
Warning: No composition information available for thermochemistry variable DIAMOND_A4 (condensed, at grain boundary). Molar mass cannot be computed and will be returned as zero.
Warning: No composition information available for thermochemistry variable DIS_SIG (condensed, at grain boundary). Molar mass cannot be computed and will be returned as zero.
Warning: No composition information available for thermochemistry variable FCC_A1 (condensed, at grain boundary). Molar mass cannot be computed and will be returned as zero.
Warning: No composition information available for thermochemistry variable HCP_A3 (condensed, at grain boundary). Molar mass cannot be computed and will be returned as zero.
Warning: No composition information available for thermochemistry variable MC_ETA (condensed, at grain boundary). Molar mass cannot be computed and will be returned as zero.
Warning: No composition information available for thermochemistry variable MO4O11 (condensed, at grain boundary). Molar mass cannot be computed and will be returned as zero.
Warning: No composition information available for thermochemistry variable MO8O23 (condensed, at grain boundary). Molar mass cannot be computed and will be returned as zero.
Warning: No composition information available for thermochemistry variable MO9O26 (condensed, at grain boundary). Molar mass cannot be computed and will be returned as zero.
Warning: No composition information available for thermochemistry variable MOO3 (condensed, at grain boundary). Molar mass cannot be computed and will be returned as zero.
Warning: No composition information available for thermochemistry variable ORTHORHOMBIC_A20 (condensed, at grain boundary). Molar mass cannot be computed and will be returned as zero.
Warning: No composition information available for thermochemistry variable SIGMA (condensed, at grain boundary). Molar mass cannot be computed and will be returned as zero.
Warning: No composition information available for thermochemistry variable TETRAGONAL_U (condensed, at grain boundary). Molar mass cannot be computed and will be returned as zero.
Warning: No composition information available for thermochemistry variable UO3 (condensed, at grain boundary). Molar mass cannot be computed and will be returned as zero.
Warning: No composition information available for thermochemistry variable U4O9_S1 (condensed, at grain boundary). Molar mass cannot be computed and will be returned as zero.
Warning: No composition information available for thermochemistry variable U4O9_S2 (condensed, at grain boundary). Molar mass cannot be computed and will be returned as zero.
Warning: No composition information available for thermochemistry variable U4O9_S3 (condensed, at grain boundary). Molar mass cannot be computed and will be returned as zero.
Warning: No composition information available for thermochemistry variable U3O8_S1 (condensed, at grain boundary). Molar mass cannot be computed and will be returned as zero.
Warning: No composition information available for thermochemistry variable U3O8_S2 (condensed, at grain boundary). Molar mass cannot be computed and will be returned as zero.
Warning: No composition information available for thermochemistry variable U3O8_S3 (condensed, at grain boundary). Molar mass cannot be computed and will be returned as zero.
Warning: No composition information available for thermochemistry variable U3O8_S4 (condensed, at grain boundary). Molar mass cannot be computed and will be returned as zero.
STOP Au revoir
STOP Au revoir
STOP Au revoir
STOP Au revoir
STOP Au revoir
Warning: No composition information available for thermochemistry variable UO2:VA (ionic_liquid, at grain boundary). Molar mass cannot be computed and will be returned as zero.
Warning: No composition information available for thermochemistry variable U (ionic_liquid, at grain boundary). Molar mass cannot be computed and will be returned as zero.
Warning: No composition information available for thermochemistry variable O (ionic_liquid, at grain boundary). Molar mass cannot be computed and will be returned as zero.
Warning: No composition information available for thermochemistry variable BCC_A2 (condensed, at grain boundary). Molar mass cannot be computed and will be returned as zero.
Warning: No composition information available for thermochemistry variable C1_MO2 (condensed, at grain boundary). Molar mass cannot be computed and will be returned as zero.
Warning: No composition information available for thermochemistry variable C14_LAVES (condensed, at grain boundary). Molar mass cannot be computed and will be returned as zero.
Warning: No composition information available for thermochemistry variable C15_LAVES (condensed, at grain boundary). Molar mass cannot be computed and will be returned as zero.
Warning: No composition information available for thermochemistry variable CS2MO2O7_S1 (condensed, at grain boundary). Molar mass cannot be computed and will be returned as zero.
Warning: No composition information available for thermochemistry variable CS2MO2O7_S2 (condensed, at grain boundary). Molar mass cannot be computed and will be returned as zero.
Warning: No composition information available for thermochemistry variable CS2MO3O10 (condensed, at grain boundary). Molar mass cannot be computed and will be returned as zero.
Warning: No composition information available for thermochemistry variable CS2MO4O13 (condensed, at grain boundary). Molar mass cannot be computed and will be returned as zero.
Warning: No composition information available for thermochemistry variable CS2MO5O16 (condensed, at grain boundary). Molar mass cannot be computed and will be returned as zero.
Warning: No composition information available for thermochemistry variable CS2MO7O22 (condensed, at grain boundary). Molar mass cannot be computed and will be returned as zero.
Warning: No composition information available for thermochemistry variable CS2MOO4_S1 (condensed, at grain boundary). Molar mass cannot be computed and will be returned as zero.
Warning: No composition information available for thermochemistry variable CS2O1 (condensed, at grain boundary). Molar mass cannot be computed and will be returned as zero.
Warning: No composition information available for thermochemistry variable CS2O2 (condensed, at grain boundary). Molar mass cannot be computed and will be returned as zero.
Warning: No composition information available for thermochemistry variable CS3O (condensed, at grain boundary). Molar mass cannot be computed and will be returned as zero.
Warning: No composition information available for thermochemistry variable CS4O (condensed, at grain boundary). Molar mass cannot be computed and will be returned as zero.
Warning: No composition information available for thermochemistry variable CS7O1 (condensed, at grain boundary). Molar mass cannot be computed and will be returned as zero.
Warning: No composition information available for thermochemistry variable CS7O2 (condensed, at grain boundary). Molar mass cannot be computed and will be returned as zero.
Warning: No composition information available for thermochemistry variable CSO2 (condensed, at grain boundary). Molar mass cannot be computed and will be returned as zero.
Warning: No composition information available for thermochemistry variable CSO3 (condensed, at grain boundary). Molar mass cannot be computed and will be returned as zero.
Warning: No composition information available for thermochemistry variable DIAMOND_A4 (condensed, at grain boundary). Molar mass cannot be computed and will be returned as zero.
Warning: No composition information available for thermochemistry variable DIS_SIG (condensed, at grain boundary). Molar mass cannot be computed and will be returned as zero.
Warning: No composition information available for thermochemistry variable FCC_A1 (condensed, at grain boundary). Molar mass cannot be computed and will be returned as zero.
Warning: No composition information available for thermochemistry variable HCP_A3 (condensed, at grain boundary). Molar mass cannot be computed and will be returned as zero.
Warning: No composition information available for thermochemistry variable MC_ETA (condensed, at grain boundary). Molar mass cannot be computed and will be returned as zero.
Warning: No composition information available for thermochemistry variable MO4O11 (condensed, at grain boundary). Molar mass cannot be computed and will be returned as zero.
Warning: No composition information available for thermochemistry variable MO8O23 (condensed, at grain boundary). Molar mass cannot be computed and will be returned as zero.
Warning: No composition information available for thermochemistry variable MO9O26 (condensed, at grain boundary). Molar mass cannot be computed and will be returned as zero.
Warning: No composition information available for thermochemistry variable MOO3 (condensed, at grain boundary). Molar mass cannot be computed and will be returned as zero.
Warning: No composition information available for thermochemistry variable ORTHORHOMBIC_A20 (condensed, at grain boundary). Molar mass cannot be computed and will be returned as zero.
Warning: No composition information available for thermochemistry variable SIGMA (condensed, at grain boundary). Molar mass cannot be computed and will be returned as zero.
Warning: No composition information available for thermochemistry variable TETRAGONAL_U (condensed, at grain boundary). Molar mass cannot be computed and will be returned as zero.
Warning: No composition information available for thermochemistry variable UO3 (condensed, at grain boundary). Molar mass cannot be computed and will be returned as zero.
Warning: No composition information available for thermochemistry variable U4O9_S1 (condensed, at grain boundary). Molar mass cannot be computed and will be returned as zero.
Warning: No composition information available for thermochemistry variable U4O9_S2 (condensed, at grain boundary). Molar mass cannot be computed and will be returned as zero.
Warning: No composition information available for thermochemistry variable U4O9_S3 (condensed, at grain boundary). Molar mass cannot be computed and will be returned as zero.
Warning: No composition information available for thermochemistry variable U3O8_S1 (condensed, at grain boundary). Molar mass cannot be computed and will be returned as zero.
Warning: No composition information available for thermochemistry variable U3O8_S2 (condensed, at grain boundary). Molar mass cannot be computed and will be returned as zero.
Warning: No composition information available for thermochemistry variable U3O8_S3 (condensed, at grain boundary). Molar mass cannot be computed and will be returned as zero.
Warning: No composition information available for thermochemistry variable U3O8_S4 (condensed, at grain boundary). Molar mass cannot be computed and will be returned as zero.
STOP Au revoir
STOP Au revoir
STOP Au revoir
STOP Au revoir
STOP Au revoir
Warning: No composition information available for thermochemistry variable UO2:VA (ionic_liquid, at grain boundary). Molar mass cannot be computed and will be returned as zero.
Warning: No composition information available for thermochemistry variable U (ionic_liquid, at grain boundary). Molar mass cannot be computed and will be returned as zero.
Warning: No composition information available for thermochemistry variable O (ionic_liquid, at grain boundary). Molar mass cannot be computed and will be returned as zero.
Warning: No composition information available for thermochemistry variable BCC_A2 (condensed, at grain boundary). Molar mass cannot be computed and will be returned as zero.
Warning: No composition information available for thermochemistry variable C1_MO2 (condensed, at grain boundary). Molar mass cannot be computed and will be returned as zero.
Warning: No composition information available for thermochemistry variable C14_LAVES (condensed, at grain boundary). Molar mass cannot be computed and will be returned as zero.
Warning: No composition information available for thermochemistry variable C15_LAVES (condensed, at grain boundary). Molar mass cannot be computed and will be returned as zero.
Warning: No composition information available for thermochemistry variable CS2MO2O7_S1 (condensed, at grain boundary). Molar mass cannot be computed and will be returned as zero.
Warning: No composition information available for thermochemistry variable CS2MO2O7_S2 (condensed, at grain boundary). Molar mass cannot be computed and will be returned as zero.
Warning: No composition information available for thermochemistry variable CS2MO3O10 (condensed, at grain boundary). Molar mass cannot be computed and will be returned as zero.
Warning: No composition information available for thermochemistry variable CS2MO4O13 (condensed, at grain boundary). Molar mass cannot be computed and will be returned as zero.
Warning: No composition information available for thermochemistry variable CS2MO5O16 (condensed, at grain boundary). Molar mass cannot be computed and will be returned as zero.
Warning: No composition information available for thermochemistry variable CS2MO7O22 (condensed, at grain boundary). Molar mass cannot be computed and will be returned as zero.
Warning: No composition information available for thermochemistry variable CS2MOO4_S1 (condensed, at grain boundary). Molar mass cannot be computed and will be returned as zero.
Warning: No composition information available for thermochemistry variable CS2O1 (condensed, at grain boundary). Molar mass cannot be computed and will be returned as zero.
Warning: No composition information available for thermochemistry variable CS2O2 (condensed, at grain boundary). Molar mass cannot be computed and will be returned as zero.
Warning: No composition information available for thermochemistry variable CS3O (condensed, at grain boundary). Molar mass cannot be computed and will be returned as zero.
Warning: No composition information available for thermochemistry variable CS4O (condensed, at grain boundary). Molar mass cannot be computed and will be returned as zero.
Warning: No composition information available for thermochemistry variable CS7O1 (condensed, at grain boundary). Molar mass cannot be computed and will be returned as zero.
Warning: No composition information available for thermochemistry variable CS7O2 (condensed, at grain boundary). Molar mass cannot be computed and will be returned as zero.
Warning: No composition information available for thermochemistry variable CSO2 (condensed, at grain boundary). Molar mass cannot be computed and will be returned as zero.
Warning: No composition information available for thermochemistry variable CSO3 (condensed, at grain boundary). Molar mass cannot be computed and will be returned as zero.
Warning: No composition information available for thermochemistry variable DIAMOND_A4 (condensed, at grain boundary). Molar mass cannot be computed and will be returned as zero.
Warning: No composition information available for thermochemistry variable DIS_SIG (condensed, at grain boundary). Molar mass cannot be computed and will be returned as zero.
Warning: No composition information available for thermochemistry variable FCC_A1 (condensed, at grain boundary). Molar mass cannot be computed and will be returned as zero.
Warning: No composition information available for thermochemistry variable HCP_A3 (condensed, at grain boundary). Molar mass cannot be computed and will be returned as zero.
Warning: No composition information available for thermochemistry variable MC_ETA (condensed, at grain boundary). Molar mass cannot be computed and will be returned as zero.
Warning: No composition information available for thermochemistry variable MO4O11 (condensed, at grain boundary). Molar mass cannot be computed and will be returned as zero.
Warning: No composition information available for thermochemistry variable MO8O23 (condensed, at grain boundary). Molar mass cannot be computed and will be returned as zero.
Warning: No composition information available for thermochemistry variable MO9O26 (condensed, at grain boundary). Molar mass cannot be computed and will be returned as zero.
Warning: No composition information available for thermochemistry variable MOO3 (condensed, at grain boundary). Molar mass cannot be computed and will be returned as zero.
Warning: No composition information available for thermochemistry variable ORTHORHOMBIC_A20 (condensed, at grain boundary). Molar mass cannot be computed and will be returned as zero.
Warning: No composition information available for thermochemistry variable SIGMA (condensed, at grain boundary). Molar mass cannot be computed and will be returned as zero.
Warning: No composition information available for thermochemistry variable TETRAGONAL_U (condensed, at grain boundary). Molar mass cannot be computed and will be returned as zero.
Warning: No composition information available for thermochemistry variable UO3 (condensed, at grain boundary). Molar mass cannot be computed and will be returned as zero.
Warning: No composition information available for thermochemistry variable U4O9_S1 (condensed, at grain boundary). Molar mass cannot be computed and will be returned as zero.
Warning: No composition information available for thermochemistry variable U4O9_S2 (condensed, at grain boundary). Molar mass cannot be computed and will be returned as zero.
Warning: No composition information available for thermochemistry variable U4O9_S3 (condensed, at grain boundary). Molar mass cannot be computed and will be returned as zero.
Warning: No composition information available for thermochemistry variable U3O8_S1 (condensed, at grain boundary). Molar mass cannot be computed and will be returned as zero.
Warning: No composition information available for thermochemistry variable U3O8_S2 (condensed, at grain boundary). Molar mass cannot be computed and will be returned as zero.
Warning: No composition information available for thermochemistry variable U3O8_S3 (condensed, at grain boundary). Molar mass cannot be computed and will be returned as zero.
Warning: No composition information available for thermochemistry variable U3O8_S4 (condensed, at grain boundary). Molar mass cannot be computed and will be returned as zero.
