Use ./sciantix.x ../input_path/ in the working directory
OpenCalphad attempt for 'matrix' with WARM-START

[OC input] ./OCinput_matrix.OCM
----------------------------------------
@$ Initialize variables:
r t /home/ecappellari/transparant/opencalphad/data/O-Pu-UPaper o pu u

set ref o gas * 100000

set c t=1733
set c p=200000
set c n(o)=0.663866
set c n(pu)=0.0735683
set c n(u)=0.262566
c e
c w

save u ./OCoutput_matrix Y

l /out=./OCoutput_matrix.DAT r 1

fin
----------------------------------------

3A unfished preparations for XTDB


Open Calphad (OC) software version   6.106 , linked 2026-04-16
with command line monitor version  73

This program is available with a GNU General Public License.
either version 2 of the License, or any later version.
It includes the General Thermodynamic Package, version GTP-3.31,
Hillert's equilibrium calculation algorithm version HMS-3.0 ,
step/map/plot software version SMP-2.30 using GNUPLOT 5.2 graphics.
Numerical routines are extracted from LAPACK and BLAS and
the assessment procedure uses LMDIF from ANL.

Linked with OpenMp for parallel execution
 Warning, no environment variable OCHOME and no help file
 Working directory is: /home/ecappellari/transparant/sciantix-official/regression/test_JOG_MOX/point_04_r_1p2mm
--->OC6:--->OC6: 3E Database file extention is: ".tdb"

This database has information to users, please read carefully
Database modified by Pauline Fouquet-Metivier et al, Calphad (2022)
Only for the liquid phase of Pu-O and U-Pu-O systems

 ELEMENT /-   ELECTRON_GAS              0.0000E+00  0.0000E+00  0.0000E+00!

Database has  5 elements: O  PU U  AR N 
Give the elements to select, finish with empty line
Selected  3 elements: O  PU U 
Select elements /no more/:Selected  3 elements: O  PU U 
3E reading database file: /home/ecappellari/transparant/opencalphad/data/O-Pu-UPaper.TDB
 3B insering interaction before existing F

Out of   115 model parameters   108 have been entered


There are    17 bibliographic references
REF161          '*** Not set by database or user'
REF178          '*** Not set by database or user'
REF175          '*** Not set by database or user'
REF176          '*** Not set by database or user'
REF177          '*** Not set by database or user'
REF203          'O1PU1<G> T.C.R.A.S. Class: 6, from SSUB, id to Tbase'
REF204          'O2PU1<G> T.C.R.A.S. Class: 7 PLUTONIUM DIOXIDE <GAS>, from 
                 SSUB, id to Tbase'
REF209          'O1U1<G> T.C.R.A.S Class: 6 Data provided by T.C.R.A.S. in 
                 2000, from SSUB, different of Tbase'
REF210          'O2U1<G> T.C.R.A.S. Class: 6 URANIUM DIOXIDE <GAS>, from 
                 SSUB, slightly different of Tbase'
REF211          'O3U1<G> T.C.R.A.S Class: 6 Data provided by T.C.R.A.S. in 
                 2000, from SSUB, different of Tbase'
REF10           'A T Dinsdale, SGTE Data for Pure Elements, Calphad 15(1991)4 
                 p 317-425; also in NPL Report DMA(A)195 Rev. August 1990'
FOUQ            'P. Fouquet-Metivier et al, Calphad (2022)'
REF412          'C. Gueneau, N. Dupin, B. Sundman, C. Martial, J.-C. Dumas, 
                 S. Gosse, S. Chatain, F. De Bruycker, D. Manara, R.J.M. 
                 Konings, J. Nucl. Mat. 419 (1-3), 145-167 (2011); C-O-Pu-U'
REF37           'M. Kurata, Calphad, 23 (3-4), 305-337 1999'
REF115          '*** Not set by database or user'
REF92           'N. Dupin, Contrat CEA 4000294936/P5B73 Np-Pu Fuelbase, 
                 february REF115'
REF137          '*** Not set by database or user'

--->OC6:--->OC6:--->OC6:--->OC6:--->OC6:--->OC6:--->OC6:--->OC6:3Y Removed  1 gridpoints by merging
 3Y Composition set(s) created:            1
Gridmin:    7483 points   9.66E-03 s and       8 clockcycles, T= 1733.00
 3Y leaving global_gridmin
Phase change iteration:     4  -C1_MO2_AUTO#2
Equilibrium result:  16 its,  1.0448E-02 s,     11 cc, GS= -4.5026426E+05 J/mol
--->OC6:Equilibrium result:  10 its,  4.7100E-04 s,      0 cc, GS= -4.5026426E+05 J/mol
3Y Testing if any gridpoint is below the calculated equilibrium
--->OC6:--->OC6:3E allocating workspace:     122160          (   2160,   10000,    2)
 3E saving            3  symbols as texts
 3E used        12117  words out of       122160  for storing static data
 ceqrecsize not implemented          26
 3E Saving an equilibrium record requires     2854       0 words
 3E not storing unused equilibria from:            2
 3E Saving assessment record
 3E No experimental equilibrium range set
 3E allocating assessment head record          48
 3E no coefficients allocated
 3E no work array (assrec%wopt) allocated
Used    15059 words out of   122160,  12.33% for unformatted memory save
Written workspace      60236 bytes unformatted on ./OCoutput_matrix.OCU
--->OC6:--->OC6:Output on file: ./OCoutput_matrix.DAT
Output unit reset to screen:    6
--->OC6:--->OC6:
[OC output] ./OCoutput_matrix.DAT
----------------------------------------

%%%%%%%%%% OC output written: 2026-04-20  11h29

Output for equilibrium:   1, DEFAULT_EQUILIBRIUM          2026.04.20
Conditions .................................................:
  1:T=1733, 2:P=200000, 3:N(O)=0.663866, 4:N(PU)=.0735683, 5:N(U)=0.262566
 Degrees of freedom are   0

Some global data, reference state SER ......................:
T=   1733.00 K (  1459.85 C), P=  2.0000E+05 Pa, V=  0.0000E+00 m3
N=   1.0000E+00 moles, B=   9.1075E+01 g, RT=   1.4409E+04 J/mol
G= -4.50264E+05 J, G/N=-4.5026E+05 J/mol, H=-3.1952E+05 J, S= 7.544E+01 J/K

Some data for components ...................................:
Component name    Moles      Mole-fr  Chem.pot/RT  Activities  Ref.state
O                 6.6387E-01  0.66387 -1.6391E+01  7.6098E-08  GAS             
PU                7.3568E-02  0.07357 -3.3701E+01  2.3108E-15  SER (default)   
U                 2.6257E-01  0.26257 -3.3272E+01  3.5505E-15  SER (default)   

Some data for phases .......................................:
Name                Status Moles      Volume    Form.Units Cmp/FU dGm/RT  Comp:
C1_MO2#1................ E  1.000E+00  0.00E+00  3.36E-01    2.98  0.00E+00  X:
 O      6.63866E-01  U      2.62566E-01  PU     7.35683E-02


----------------------------------------

[OC parser] Parsed components
  O : moles=0.66387, x=0.66387, mu/RT=-16.391, activity=7.6098e-08, ref=GAS
  Pu : moles=0.073568, x=0.07357, mu/RT=-33.701, activity=2.3108e-15, ref=SER (default)
  U : moles=0.26257, x=0.26257, mu/RT=-33.272, activity=3.5505e-15, ref=SER (default)

[OC parser] Parsed phases
  Phase condensed : moles=1, volume=0
    Elements
      O = 1.97832
      Pu = 0.219234
      U = 0.782447
    Species
      C1_MO2 : moles=1, volume=0
        O = 1.97832
        Pu = 0.219234
        U = 0.782447
[Thermochemistry] C1_MO2 (condensed, matrix) composition=O:1.9783207,Pu:0.21923353,U:0.78244668 molar_mass=270.304 g/mol
OpenCalphad attempt for 'matrix' with WARM-START

[OC input] ./OCinput_matrix.OCM
----------------------------------------
r u ./OCoutput_matrix.OCU

set ref o gas * 100000

set c t=1733
set c p=268000
set c n(o)=0.664146
set c n(pu)=0.0731764
set c n(u)=0.262677
c e
c w

save u ./OCoutput_matrix Y

l /out=./OCoutput_matrix.DAT r 1

fin
----------------------------------------

3A unfished preparations for XTDB


Open Calphad (OC) software version   6.106 , linked 2026-04-16
with command line monitor version  73

This program is available with a GNU General Public License.
either version 2 of the License, or any later version.
It includes the General Thermodynamic Package, version GTP-3.31,
Hillert's equilibrium calculation algorithm version HMS-3.0 ,
step/map/plot software version SMP-2.30 using GNUPLOT 5.2 graphics.
Numerical routines are extracted from LAPACK and BLAS and
the assessment procedure uses LMDIF from ANL.

Linked with OpenMp for parallel execution
 Warning, no environment variable OCHOME and no help file
 Working directory is: /home/ecappellari/transparant/sciantix-official/regression/test_JOG_MOX/point_04_r_1p2mm
--->OC6:
Read unformatted file: This is a save file for OC version:     OCF-3.20
Generated:  2026.04.20 11h29

 3E reading unformatted:        15024           0           0
3E Addition type   1, Inden-Hillert magn model for BCC_A2
3E Addition type   1, Inden-Hillert magn model for FCC_A1
 3E no experimental data
 3E no coefficient values saved
 3E Read assessment record
 No coefficients allocated
--->OC6:--->OC6:--->OC6:--->OC6:--->OC6:--->OC6:--->OC6:--->OC6:--->OC6:3Y Removed  1 gridpoints by merging
Gridmin:    7483 points   8.75E-03 s and       8 clockcycles, T= 1733.00
 3Y leaving global_gridmin
Phase change iteration:     4  -C1_MO2_AUTO#2
Equilibrium result:  18 its,  9.5760E-03 s,     10 cc, GS= -4.5024793E+05 J/mol
--->OC6:MM ignoring phase: C1_MO2_AUTO#2   7  25 with charge:  1.7592E-01
Equilibrium result:  12 its,  4.8100E-04 s,      0 cc, GS= -4.5024793E+05 J/mol
3Y Testing if any gridpoint is below the calculated equilibrium
--->OC6:--->OC6:
Overwriting previous results on ./OCoutput_matrix.OCU
3E allocating workspace:     122160          (   2160,   10000,    2)
 3E saving            3  symbols as texts
 3E used        12117  words out of       122160  for storing static data
 ceqrecsize not implemented          26
 3E Saving an equilibrium record requires     2854       0 words
 3E not storing unused equilibria from:            2
 3E Saving assessment record
 3E No experimental equilibrium range set
 3E allocating assessment head record          48
 3E no coefficients allocated
 3E no work array (assrec%wopt) allocated
Used    15059 words out of   122160,  12.33% for unformatted memory save
Written workspace      60236 bytes unformatted on ./OCoutput_matrix.OCU
--->OC6:--->OC6:Output on file: ./OCoutput_matrix.DAT
Output unit reset to screen:    6
--->OC6:--->OC6:
[OC output] ./OCoutput_matrix.DAT
----------------------------------------

%%%%%%%%%% OC output written: 2026-04-20  11h29

Output for equilibrium:   1, DEFAULT_EQUILIBRIUM          2026.04.20
Conditions .................................................:
  1:T=1733, 2:P=268000, 3:N(O)=0.664146, 4:N(PU)=.0731764, 5:N(U)=0.262677
 Degrees of freedom are   0

Some global data, reference state SER ......................:
T=   1733.00 K (  1459.85 C), P=  2.6800E+05 Pa, V=  0.0000E+00 m3
N=   1.0000E+00 moles, B=   9.1010E+01 g, RT=   1.4409E+04 J/mol
G= -4.50248E+05 J, G/N=-4.5025E+05 J/mol, H=-3.1961E+05 J, S= 7.539E+01 J/K

Some data for components ...................................:
Component name    Moles      Mole-fr  Chem.pot/RT  Activities  Ref.state
O                 6.6415E-01  0.66415 -1.6365E+01  7.8086E-08  GAS             
PU                7.3176E-02  0.07318 -3.4029E+01  1.6657E-15  SER (default)   
U                 2.6268E-01  0.26268 -3.3615E+01  2.5177E-15  SER (default)   

Some data for phases .......................................:
Name                Status Moles      Volume    Form.Units Cmp/FU dGm/RT  Comp:
C1_MO2#1................ E  1.000E+00  0.00E+00  3.36E-01    2.98  0.00E+00  X:
 O      6.64146E-01  U      2.62677E-01  PU     7.31764E-02


----------------------------------------

[OC parser] Parsed components
  O : moles=0.66415, x=0.66415, mu/RT=-16.365, activity=7.8086e-08, ref=GAS
  Pu : moles=0.073176, x=0.07318, mu/RT=-34.029, activity=1.6657e-15, ref=SER (default)
  U : moles=0.26268, x=0.26268, mu/RT=-33.615, activity=2.5177e-15, ref=SER (default)

[OC parser] Parsed phases
  Phase condensed : moles=1, volume=0
    Elements
      O = 1.97916
      Pu = 0.218066
      U = 0.782777
    Species
      C1_MO2 : moles=1, volume=0
        O = 1.97916
        Pu = 0.218066
        U = 0.782777
OpenCalphad attempt for 'matrix' with WARM-START

[OC input] ./OCinput_matrix.OCM
----------------------------------------
r u ./OCoutput_matrix.OCU

set ref o gas * 100000

set c t=1733
set c p=336000
set c n(o)=0.664427
set c n(pu)=0.0727842
set c n(u)=0.262788
c e
c w

save u ./OCoutput_matrix Y

l /out=./OCoutput_matrix.DAT r 1

fin
----------------------------------------

3A unfished preparations for XTDB


Open Calphad (OC) software version   6.106 , linked 2026-04-16
with command line monitor version  73

This program is available with a GNU General Public License.
either version 2 of the License, or any later version.
It includes the General Thermodynamic Package, version GTP-3.31,
Hillert's equilibrium calculation algorithm version HMS-3.0 ,
step/map/plot software version SMP-2.30 using GNUPLOT 5.2 graphics.
Numerical routines are extracted from LAPACK and BLAS and
the assessment procedure uses LMDIF from ANL.

Linked with OpenMp for parallel execution
 Warning, no environment variable OCHOME and no help file
 Working directory is: /home/ecappellari/transparant/sciantix-official/regression/test_JOG_MOX/point_04_r_1p2mm
--->OC6:
Read unformatted file: This is a save file for OC version:     OCF-3.20
Generated:  2026.04.20 11h29

 3E reading unformatted:        15024           0           0
3E Addition type   1, Inden-Hillert magn model for BCC_A2
3E Addition type   1, Inden-Hillert magn model for FCC_A1
 3E no experimental data
 3E no coefficient values saved
 3E Read assessment record
 No coefficients allocated
--->OC6:--->OC6:--->OC6:--->OC6:--->OC6:--->OC6:--->OC6:--->OC6:--->OC6:3Y Removed  1 gridpoints by merging
Gridmin:    7483 points   9.52E-03 s and       8 clockcycles, T= 1733.00
 3Y leaving global_gridmin
Phase change iteration:     4  -C1_MO2_AUTO#2
Equilibrium result:  18 its,  1.0750E-02 s,     11 cc, GS= -4.5022982E+05 J/mol
--->OC6:Equilibrium result:  11 its,  5.4300E-04 s,      1 cc, GS= -4.5022982E+05 J/mol
3Y Testing if any gridpoint is below the calculated equilibrium
--->OC6:--->OC6:
Overwriting previous results on ./OCoutput_matrix.OCU
3E allocating workspace:     122160          (   2160,   10000,    2)
 3E saving            3  symbols as texts
 3E used        12117  words out of       122160  for storing static data
 ceqrecsize not implemented          26
 3E Saving an equilibrium record requires     2854       0 words
 3E not storing unused equilibria from:            2
 3E Saving assessment record
 3E No experimental equilibrium range set
 3E allocating assessment head record          48
 3E no coefficients allocated
 3E no work array (assrec%wopt) allocated
Used    15059 words out of   122160,  12.33% for unformatted memory save
Written workspace      60236 bytes unformatted on ./OCoutput_matrix.OCU
--->OC6:--->OC6:Output on file: ./OCoutput_matrix.DAT
Output unit reset to screen:    6
--->OC6:--->OC6:
[OC output] ./OCoutput_matrix.DAT
----------------------------------------

%%%%%%%%%% OC output written: 2026-04-20  11h29

Output for equilibrium:   1, DEFAULT_EQUILIBRIUM          2026.04.20
Conditions .................................................:
  1:T=1733, 2:P=336000, 3:N(O)=0.664427, 4:N(PU)=.0727842, 5:N(U)=0.262788
 Degrees of freedom are   0

Some global data, reference state SER ......................:
T=   1733.00 K (  1459.85 C), P=  3.3600E+05 Pa, V=  0.0000E+00 m3
N=   1.0000E+00 moles, B=   9.0945E+01 g, RT=   1.4409E+04 J/mol
G= -4.50230E+05 J, G/N=-4.5023E+05 J/mol, H=-3.1969E+05 J, S= 7.533E+01 J/K

Some data for components ...................................:
Component name    Moles      Mole-fr  Chem.pot/RT  Activities  Ref.state
O                 6.6443E-01  0.66443 -1.6295E+01  8.3822E-08  GAS             
PU                7.2784E-02  0.07278 -3.4380E+01  1.1725E-15  SER (default)   
U                 2.6279E-01  0.26279 -3.3983E+01  1.7433E-15  SER (default)   

Some data for phases .......................................:
Name                Status Moles      Volume    Form.Units Cmp/FU dGm/RT  Comp:
C1_MO2#1................ E  1.000E+00  0.00E+00  3.36E-01    2.98  0.00E+00  X:
 O      6.64428E-01  U      2.62788E-01  PU     7.27843E-02


----------------------------------------

[OC parser] Parsed components
  O : moles=0.66443, x=0.66443, mu/RT=-16.295, activity=8.3822e-08, ref=GAS
  Pu : moles=0.072784, x=0.07278, mu/RT=-34.38, activity=1.1725e-15, ref=SER (default)
  U : moles=0.26279, x=0.26279, mu/RT=-33.983, activity=1.7433e-15, ref=SER (default)

[OC parser] Parsed phases
  Phase condensed : moles=1, volume=0
    Elements
      O = 1.98
      Pu = 0.216897
      U = 0.783108
    Species
      C1_MO2 : moles=1, volume=0
        O = 1.98
        Pu = 0.216897
        U = 0.783108
OpenCalphad attempt for 'at grain boundary' with WARM-START

[OC input] ./OCinput_fission_products.OCM
----------------------------------------
@$ Initialize variables:
r t /home/ecappellari/transparant/opencalphad/data/CsMoO_TAFID_2021_Anna cs mo o

set ref o gas * 100000

set c t=1733
set c p=336000
set c n(cs)=5.7376e-05
set c n(mo)=0.000117559
set c n(o)=0.999825
c e
set c n(o)=none
set c mu(o)=-469579

c w

save u ./OCoutput_fission_products Y

l /out=./OCoutput_fission_products.DAT r 1

fin
----------------------------------------

3A unfished preparations for XTDB


Open Calphad (OC) software version   6.106 , linked 2026-04-16
with command line monitor version  73

This program is available with a GNU General Public License.
either version 2 of the License, or any later version.
It includes the General Thermodynamic Package, version GTP-3.31,
Hillert's equilibrium calculation algorithm version HMS-3.0 ,
step/map/plot software version SMP-2.30 using GNUPLOT 5.2 graphics.
Numerical routines are extracted from LAPACK and BLAS and
the assessment procedure uses LMDIF from ANL.

Linked with OpenMp for parallel execution
 Warning, no environment variable OCHOME and no help file
 Working directory is: /home/ecappellari/transparant/sciantix-official/regression/test_JOG_MOX/point_04_r_1p2mm
--->OC6:--->OC6: 3E Database file extention is: ".tdb"
Database has  3 elements: CS MO O 
Give the elements to select, finish with empty line
Selected  3 elements: CS MO O 
Select elements /no more/:Selected  3 elements: CS MO O 
3E reading database file: /home/ecappellari/transparant/opencalphad/data/CsMoO_TAFID_2021_Anna.TDB

Out of    82 model parameters    82 have been entered


There are     1 bibliographic references
REF0            '*** Not set by database or user'

--->OC6:--->OC6:--->OC6:--->OC6:--->OC6:--->OC6:--->OC6:--->OC6: 3Y Composition set(s) created:            1
Gridmin:    9683 points   1.19E-02 s and      11 clockcycles, T= 1733.00
 3Y leaving global_gridmin
Phase change iteration:     4  -LIQUID_AUTO#2
Phase change iteration:     5  +LIQUID_AUTO#2
Phase change iteration:    10  -LIQUID_AUTO#2
Phase change iteration:    17  -LIQUID#1
Equilibrium result:  37 its,  1.3291E-02 s,     13 cc, GS= -1.9495654E+05 J/mol
--->OC6:--->OC6:--->OC6:--->OC6:Phase change iteration:     4  +HCP_A3
Equilibrium result:  23 its,  8.7400E-04 s,      1 cc, GS= -2.3544418E+01 J/mol
3Y Testing if any gridpoint is below the calculated equilibrium
 3Y Equilibrium wrong, gridtest found BCC_A2                  
 3Y recalculate with:           39           2          40
 MM recalculating with this phase as stable 2:           39
MM Calculate with activity condition
Phase change iteration:     4  -BCC_A2_CHKD#2
Phase change iteration:     5  +BCC_A2_CHKD#2
Phase change iteration:     8  +BCC_A2_CHKD#2
Phase change iteration:     9  +BCC_A2_CHKD#2
Phase change iteration:    10  +BCC_A2_CHKD#2
MM Too many stable phases at iter  10, phase  27 replaced by   5, T=  1733.00
Equilibrium result:  21 its,  1.5660E-02 s,     16 cc, GS= -2.4850503E+01 J/mol
3Y Testing if any gridpoint is below the calculated equilibrium
--->OC6:--->OC6:3E allocating workspace:     123330          (   3330,   10000,    2)
 3E saving            3  symbols as texts
 3E used        12291  words out of       123330  for storing static data
 ceqrecsize not implemented          40
 3E Saving an equilibrium record requires     4302       0 words
 3E not storing unused equilibria from:            2
 3E Saving assessment record
 3E No experimental equilibrium range set
 3E allocating assessment head record          48
 3E no coefficients allocated
 3E no work array (assrec%wopt) allocated
Used    16681 words out of   123330,  13.53% for unformatted memory save
Written workspace      66724 bytes unformatted on ./OCoutput_fission_products.OCU
--->OC6:--->OC6:Output on file: ./OCoutput_fission_products.DAT
Output unit reset to screen:    6
--->OC6:--->OC6:
[OC output] ./OCoutput_fission_products.DAT
----------------------------------------

%%%%%%%%%% OC output written: 2026-04-20  11h29

Output for equilibrium:   1, DEFAULT_EQUILIBRIUM          2026.04.20
Conditions .................................................:
  1:T=1733, 2:P=336000, 3:N(CS)=5.7376E-05, 4:N(MO)=.000117559, 5:MU(O)=
    -469579
 Degrees of freedom are   0

Some global data, reference state SER ......................:
T=   1733.00 K (  1459.85 C), P=  3.3600E+05 Pa, V=  2.4184E-06 m3
N=   1.7494E-04 moles, B=   1.8904E-02 g, RT=   1.4409E+04 J/mol
G= -2.48505E+01 J, G/N=-1.4206E+05 J/mol, H= 1.0896E+01 J, S= 2.063E-02 J/K

Some data for components ...................................:
Component name    Moles      Mole-fr  Chem.pot/RT  Activities  Ref.state
CS                5.7376E-05  0.32798 -1.6944E+01  4.3785E-08  SER (default)   
MO                1.1756E-04  0.67202 -6.4008E+00  1.6603E-03  SER (default)   
O                 6.9137E-16  0.00000 -3.2589E+01  7.0258E-15  GAS             

Some data for phases .......................................:
Name                Status Moles      Volume    Form.Units Cmp/FU dGm/RT  Comp:
GAS..................... E  5.722E-05  2.42E-06  5.64E-05    1.01  0.00E+00  X:
 CS     1.00000E+00  O      5.29228E-12  MO     2.41409E-13
Constitution: There are    18 constituents:
 CS           9.85288E-01  MO2          1.57609E-19  MO3O9        1.00000E-30
 CS2          1.47120E-02  MOO          2.85906E-20  MOO3         1.00000E-30
 CS2O         5.35991E-12  MOO2         7.23182E-27  MO2O6        1.00000E-30
 MO           2.44960E-13  CS2O2        6.13051E-27  MO5O15       1.00000E-30
 CSO          1.02350E-14  O2           4.93625E-29  O3           1.00000E-30
 O            2.41450E-19  MO4O12       1.00000E-30  CS2MOO4      1.00000E-30

BCC_A2_CHKD#2........... E  1.177E-04  0.00E+00  1.18E-04    1.00  0.00E+00  X:
 MO     9.98705E-01  CS     1.29503E-03  O      3.30066E-12


----------------------------------------

[OC parser] Parsed components
  Cs : moles=5.7376e-05, x=0.32798, mu/RT=-16.944, activity=4.3785e-08, ref=SER (default)
  Mo : moles=0.00011756, x=0.67202, mu/RT=-6.4008, activity=0.0016603, ref=SER (default)
  O : moles=6.9137e-16, x=0, mu/RT=-32.589, activity=7.0258e-15, ref=GAS

[OC parser] Parsed phases
  Phase condensed : moles=0.0001177, volume=0
    Elements
      Cs = 1.52425e-07
      Mo = 0.000117548
      O = 3.88488e-16
    Species
      BCC_A2 : moles=0.0001177, volume=0
        Cs = 1.52425e-07
        Mo = 0.000117548
        O = 3.88488e-16
  Phase gas : moles=5.722e-05, volume=2.42e-06
    Elements
      Cs = 5.722e-05
      Mo = 1.38134e-17
      O = 3.02824e-16
    Species
      CS : moles=5.63782e-05, volume=0
      CS2 : moles=8.41821e-07, volume=0
      CS2MOO4 : moles=5.722e-35, volume=0
      CS2O : moles=3.06694e-16, volume=0
      CS2O2 : moles=3.50788e-31, volume=0
      CSO : moles=5.85647e-19, volume=0
      MO : moles=1.40166e-17, volume=0
      MO2 : moles=9.01839e-24, volume=0
      MO2O6 : moles=5.722e-35, volume=0
      MO3O9 : moles=5.722e-35, volume=0
      MO4O12 : moles=5.722e-35, volume=0
      MO5O15 : moles=5.722e-35, volume=0
      MOO : moles=1.63595e-24, volume=0
      MOO2 : moles=4.13805e-31, volume=0
      MOO3 : moles=5.722e-35, volume=0
      O : moles=1.38158e-23, volume=0
      O2 : moles=2.82452e-33, volume=0
      O3 : moles=5.722e-35, volume=0
      are : moles=0.00102996, volume=0
[Thermochemistry] BCC_A2 (condensed, at grain boundary) composition=Cs:0.00129503,Mo:0.998705,O:3.30066e-12 molar_mass=95.9979 g/mol
[Thermochemistry] CS (gas, at grain boundary) composition=<empty> molar_mass=0 g/mol
[Thermochemistry] CS2 (gas, at grain boundary) composition=<empty> molar_mass=0 g/mol
[Thermochemistry] CS2MOO4 (gas, at grain boundary) composition=<empty> molar_mass=0 g/mol
[Thermochemistry] CS2O (gas, at grain boundary) composition=<empty> molar_mass=0 g/mol
[Thermochemistry] CS2O2 (gas, at grain boundary) composition=<empty> molar_mass=0 g/mol
[Thermochemistry] CSO (gas, at grain boundary) composition=<empty> molar_mass=0 g/mol
[Thermochemistry] MO (gas, at grain boundary) composition=<empty> molar_mass=0 g/mol
[Thermochemistry] MO2 (gas, at grain boundary) composition=<empty> molar_mass=0 g/mol
[Thermochemistry] MO2O6 (gas, at grain boundary) composition=<empty> molar_mass=0 g/mol
[Thermochemistry] MO3O9 (gas, at grain boundary) composition=<empty> molar_mass=0 g/mol
[Thermochemistry] MO4O12 (gas, at grain boundary) composition=<empty> molar_mass=0 g/mol
[Thermochemistry] MO5O15 (gas, at grain boundary) composition=<empty> molar_mass=0 g/mol
[Thermochemistry] MOO (gas, at grain boundary) composition=<empty> molar_mass=0 g/mol
[Thermochemistry] MOO2 (gas, at grain boundary) composition=<empty> molar_mass=0 g/mol
[Thermochemistry] MOO3 (gas, at grain boundary) composition=<empty> molar_mass=0 g/mol
[Thermochemistry] O (gas, at grain boundary) composition=<empty> molar_mass=0 g/mol
[Thermochemistry] O2 (gas, at grain boundary) composition=<empty> molar_mass=0 g/mol
[Thermochemistry] O3 (gas, at grain boundary) composition=<empty> molar_mass=0 g/mol
OpenCalphad attempt for 'matrix' with WARM-START

[OC input] ./OCinput_matrix.OCM
----------------------------------------
r u ./OCoutput_matrix.OCU

set ref o gas * 100000

set c t=1733
set c p=404000
set c n(o)=0.664709
set c n(pu)=0.0723917
set c n(u)=0.2629
c e
c w

save u ./OCoutput_matrix Y

l /out=./OCoutput_matrix.DAT r 1

fin
----------------------------------------

3A unfished preparations for XTDB


Open Calphad (OC) software version   6.106 , linked 2026-04-16
with command line monitor version  73

This program is available with a GNU General Public License.
either version 2 of the License, or any later version.
It includes the General Thermodynamic Package, version GTP-3.31,
Hillert's equilibrium calculation algorithm version HMS-3.0 ,
step/map/plot software version SMP-2.30 using GNUPLOT 5.2 graphics.
Numerical routines are extracted from LAPACK and BLAS and
the assessment procedure uses LMDIF from ANL.

Linked with OpenMp for parallel execution
 Warning, no environment variable OCHOME and no help file
 Working directory is: /home/ecappellari/transparant/sciantix-official/regression/test_JOG_MOX/point_04_r_1p2mm
--->OC6:
Read unformatted file: This is a save file for OC version:     OCF-3.20
Generated:  2026.04.20 11h29

 3E reading unformatted:        15024           0           0
3E Addition type   1, Inden-Hillert magn model for BCC_A2
3E Addition type   1, Inden-Hillert magn model for FCC_A1
 3E no experimental data
 3E no coefficient values saved
 3E Read assessment record
 No coefficients allocated
--->OC6:--->OC6:--->OC6:--->OC6:--->OC6:--->OC6:--->OC6:--->OC6:--->OC6:3Y Removed  1 gridpoints by merging
Gridmin:    7483 points   9.55E-03 s and       8 clockcycles, T= 1733.00
 3Y leaving global_gridmin
Phase change iteration:     4  -C1_MO2_AUTO#2
Equilibrium result:  17 its,  1.0350E-02 s,     10 cc, GS= -4.5021026E+05 J/mol
--->OC6:Equilibrium result:  10 its,  3.8200E-04 s,      1 cc, GS= -4.5021026E+05 J/mol
3Y Testing if any gridpoint is below the calculated equilibrium
--->OC6:--->OC6:
Overwriting previous results on ./OCoutput_matrix.OCU
3E allocating workspace:     122160          (   2160,   10000,    2)
 3E saving            3  symbols as texts
 3E used        12117  words out of       122160  for storing static data
 ceqrecsize not implemented          26
 3E Saving an equilibrium record requires     2853       0 words
 3E not storing unused equilibria from:            2
 3E Saving assessment record
 3E No experimental equilibrium range set
 3E allocating assessment head record          48
 3E no coefficients allocated
 3E no work array (assrec%wopt) allocated
Used    15058 words out of   122160,  12.33% for unformatted memory save
Written workspace      60232 bytes unformatted on ./OCoutput_matrix.OCU
--->OC6:--->OC6:Output on file: ./OCoutput_matrix.DAT
Output unit reset to screen:    6
--->OC6:--->OC6:
[OC output] ./OCoutput_matrix.DAT
----------------------------------------

%%%%%%%%%% OC output written: 2026-04-20  11h29

Output for equilibrium:   1, DEFAULT_EQUILIBRIUM          2026.04.20
Conditions .................................................:
  1:T=1733, 2:P=404000, 3:N(O)=0.664709, 4:N(PU)=.0723917, 5:N(U)=0.2629
 Degrees of freedom are   0

Some global data, reference state SER ......................:
T=   1733.00 K (  1459.85 C), P=  4.0400E+05 Pa, V=  0.0000E+00 m3
N=   1.0000E+00 moles, B=   9.0881E+01 g, RT=   1.4409E+04 J/mol
G= -4.50210E+05 J, G/N=-4.5021E+05 J/mol, H=-3.1977E+05 J, S= 7.527E+01 J/K

Some data for components ...................................:
Component name    Moles      Mole-fr  Chem.pot/RT  Activities  Ref.state
O                 6.6471E-01  0.66471 -1.6188E+01  9.3237E-08  GAS             
PU                7.2392E-02  0.07239 -3.4760E+01  8.0129E-16  SER (default)   
U                 2.6290E-01  0.26290 -3.4380E+01  1.1720E-15  SER (default)   

Some data for phases .......................................:
Name                Status Moles      Volume    Form.Units Cmp/FU dGm/RT  Comp:
C1_MO2#1................ E  1.000E+00  0.00E+00  3.35E-01    2.98  0.00E+00  X:
 O      6.64709E-01  U      2.62900E-01  PU     7.23916E-02


----------------------------------------

[OC parser] Parsed components
  O : moles=0.66471, x=0.66471, mu/RT=-16.188, activity=9.3237e-08, ref=GAS
  Pu : moles=0.072392, x=0.07239, mu/RT=-34.76, activity=8.0129e-16, ref=SER (default)
  U : moles=0.2629, x=0.2629, mu/RT=-34.38, activity=1.172e-15, ref=SER (default)

[OC parser] Parsed phases
  Phase condensed : moles=1, volume=0
    Elements
      O = 1.98083
      Pu = 0.215727
      U = 0.783442
    Species
      C1_MO2 : moles=1, volume=0
        O = 1.98083
        Pu = 0.215727
        U = 0.783442
OpenCalphad attempt for 'at grain boundary' with WARM-START

[OC input] ./OCinput_fission_products.OCM
----------------------------------------
r u ./OCoutput_fission_products.OCU

set ref o gas * 100000

set c t=1733
set c p=404000
set c n(cs)=5.95899e-05
set c n(mo)=0.00020012
set c n(o)=0.99974
c e
set c n(o)=none
set c mu(o)=-466495

c w

save u ./OCoutput_fission_products Y

l /out=./OCoutput_fission_products.DAT r 1

fin
----------------------------------------

3A unfished preparations for XTDB


Open Calphad (OC) software version   6.106 , linked 2026-04-16
with command line monitor version  73

This program is available with a GNU General Public License.
either version 2 of the License, or any later version.
It includes the General Thermodynamic Package, version GTP-3.31,
Hillert's equilibrium calculation algorithm version HMS-3.0 ,
step/map/plot software version SMP-2.30 using GNUPLOT 5.2 graphics.
Numerical routines are extracted from LAPACK and BLAS and
the assessment procedure uses LMDIF from ANL.

Linked with OpenMp for parallel execution
 Warning, no environment variable OCHOME and no help file
 Working directory is: /home/ecappellari/transparant/sciantix-official/regression/test_JOG_MOX/point_04_r_1p2mm
--->OC6:
Read unformatted file: This is a save file for OC version:     OCF-3.20
Generated:  2026.04.20 11h29

 3E reading unformatted:        16646           0           0
3E Addition type   1, Inden-Hillert magn model for BCC_A2
3E Addition type   1, Inden-Hillert magn model for FCC_A1
3E Addition type   1, Inden-Hillert magn model for HCP_A3
 3E no experimental data
 3E no coefficient values saved
 3E Read assessment record
 No coefficients allocated
--->OC6:--->OC6:--->OC6:--->OC6:--->OC6:--->OC6:--->OC6:--->OC6:--->OC6:
Error codes:   4144     0    50
Message: Degrees of freedom not zero

--->OC6:--->OC6:--->OC6:--->OC6:Equilibrium result:   9 its,  4.5300E-04 s,      0 cc, GS= -3.2850541E+01 J/mol
3Y Testing if any gridpoint is below the calculated equilibrium
--->OC6:--->OC6:
Overwriting previous results on ./OCoutput_fission_products.OCU
3E allocating workspace:     123330          (   3330,   10000,    2)
 3E saving            3  symbols as texts
 3E used        12291  words out of       123330  for storing static data
 ceqrecsize not implemented          40
 3E Saving an equilibrium record requires     4302       0 words
 3E not storing unused equilibria from:            2
 3E Saving assessment record
 3E No experimental equilibrium range set
 3E allocating assessment head record          48
 3E no coefficients allocated
 3E no work array (assrec%wopt) allocated
Used    16681 words out of   123330,  13.53% for unformatted memory save
Written workspace      66724 bytes unformatted on ./OCoutput_fission_products.OCU
--->OC6:--->OC6:Output on file: ./OCoutput_fission_products.DAT
Output unit reset to screen:    6
--->OC6:--->OC6:
[OC output] ./OCoutput_fission_products.DAT
----------------------------------------

%%%%%%%%%% OC output written: 2026-04-20  11h29

Output for equilibrium:   1, DEFAULT_EQUILIBRIUM          2026.04.20
Conditions .................................................:
  1:T=1733, 2:P=404000, 3:N(CS)=5.95899E-05, 4:N(MO)=.00020012, 5:MU(O)=
    -466495
 Degrees of freedom are   0

Some global data, reference state SER ......................:
T=   1733.00 K (  1459.85 C), P=  4.0400E+05 Pa, V=  2.0777E-06 m3
N=   2.5971E-04 moles, B=   2.7120E-02 g, RT=   1.4409E+04 J/mol
G= -3.28505E+01 J, G/N=-1.2649E+05 J/mol, H= 1.4517E+01 J, S= 2.733E-02 J/K

Some data for components ...................................:
Component name    Moles      Mole-fr  Chem.pot/RT  Activities  Ref.state
CS                5.9590E-05  0.22945 -1.6763E+01  5.2492E-08  SER (default)   
MO                2.0012E-04  0.77055 -6.4010E+00  1.6598E-03  SER (default)   
O                 1.1693E-15  0.00000 -3.2375E+01  8.7027E-15  GAS             

Some data for phases .......................................:
Name                Status Moles      Volume    Form.Units Cmp/FU dGm/RT  Comp:
GAS..................... E  5.928E-05  2.08E-06  5.83E-05    1.02  0.00E+00  X:
 CS     1.00000E+00  O      8.56556E-12  MO     2.00157E-13
Constitution: There are    18 constituents:
 CS           9.82414E-01  MO2          1.31013E-19  MO3O9        1.00000E-30
 CS2          1.75864E-02  MOO          3.22881E-20  MOO3         1.00000E-30
 CS2O         8.70234E-12  CS2O2        1.35191E-26  MO2O6        1.00000E-30
 MO           2.03676E-13  MOO2         1.10928E-26  MO5O15       1.00000E-30
 CSO          1.38609E-14  O2           7.57361E-29  O3           1.00000E-30
 O            2.72746E-19  MO4O12       1.00000E-30  CS2MOO4      1.00000E-30

BCC_A2_CHKD#2........... E  2.004E-04  0.00E+00  2.00E-04    1.00  0.00E+00  X:
 MO     9.98445E-01  CS     1.55538E-03  O      3.30066E-12


----------------------------------------

[OC parser] Parsed components
  Cs : moles=5.959e-05, x=0.22945, mu/RT=-16.763, activity=5.2492e-08, ref=SER (default)
  Mo : moles=0.00020012, x=0.77055, mu/RT=-6.401, activity=0.0016598, ref=SER (default)
  O : moles=1.1693e-15, x=0, mu/RT=-32.375, activity=8.7027e-15, ref=GAS

[OC parser] Parsed phases
  Phase condensed : moles=0.0002004, volume=0
    Elements
      Cs = 3.11698e-07
      Mo = 0.000200088
      O = 6.61452e-16
    Species
      BCC_A2 : moles=0.0002004, volume=0
        Cs = 3.11698e-07
        Mo = 0.000200088
        O = 6.61452e-16
  Phase gas : moles=5.928e-05, volume=2.08e-06
    Elements
      Cs = 5.928e-05
      Mo = 1.18653e-17
      O = 5.07766e-16
    Species
      CS : moles=5.82375e-05, volume=0
      CS2 : moles=1.04252e-06, volume=0
      CS2MOO4 : moles=5.928e-35, volume=0
      CS2O : moles=5.15875e-16, volume=0
      CS2O2 : moles=8.01412e-31, volume=0
      CSO : moles=8.21674e-19, volume=0
      MO : moles=1.20739e-17, volume=0
      MO2 : moles=7.76645e-24, volume=0
      MO2O6 : moles=5.928e-35, volume=0
      MO3O9 : moles=5.928e-35, volume=0
      MO4O12 : moles=5.928e-35, volume=0
      MO5O15 : moles=5.928e-35, volume=0
      MOO : moles=1.91404e-24, volume=0
      MOO2 : moles=6.57581e-31, volume=0
      MOO3 : moles=5.928e-35, volume=0
      O : moles=1.61684e-23, volume=0
      O2 : moles=4.48964e-33, volume=0
      O3 : moles=5.928e-35, volume=0
      are : moles=0.00106704, volume=0
OpenCalphad attempt for 'matrix' with WARM-START

[OC input] ./OCinput_matrix.OCM
----------------------------------------
r u ./OCoutput_matrix.OCU

set ref o gas * 100000

set c t=1733
set c p=472000
set c n(o)=0.66499
set c n(pu)=0.0719989
set c n(u)=0.263011
c e
c w

save u ./OCoutput_matrix Y

l /out=./OCoutput_matrix.DAT r 1

fin
----------------------------------------

3A unfished preparations for XTDB


Open Calphad (OC) software version   6.106 , linked 2026-04-16
with command line monitor version  73

This program is available with a GNU General Public License.
either version 2 of the License, or any later version.
It includes the General Thermodynamic Package, version GTP-3.31,
Hillert's equilibrium calculation algorithm version HMS-3.0 ,
step/map/plot software version SMP-2.30 using GNUPLOT 5.2 graphics.
Numerical routines are extracted from LAPACK and BLAS and
the assessment procedure uses LMDIF from ANL.

Linked with OpenMp for parallel execution
 Warning, no environment variable OCHOME and no help file
 Working directory is: /home/ecappellari/transparant/sciantix-official/regression/test_JOG_MOX/point_04_r_1p2mm
--->OC6:
Read unformatted file: This is a save file for OC version:     OCF-3.20
Generated:  2026.04.20 11h29

 3E reading unformatted:        15023           0           0
3E Addition type   1, Inden-Hillert magn model for BCC_A2
3E Addition type   1, Inden-Hillert magn model for FCC_A1
 3E no experimental data
 3E no coefficient values saved
 3E Read assessment record
 No coefficients allocated
--->OC6:--->OC6:--->OC6:--->OC6:--->OC6:--->OC6:--->OC6:--->OC6:--->OC6:3Y Removed  1 gridpoints by merging
Gridmin:    7483 points   9.44E-03 s and       7 clockcycles, T= 1733.00
 3Y leaving global_gridmin
Phase change iteration:     4  -C1_MO2_AUTO#2
Equilibrium result:  16 its,  1.0276E-02 s,     10 cc, GS= -4.5018719E+05 J/mol
--->OC6:Equilibrium result:   9 its,  4.1500E-04 s,      0 cc, GS= -4.5018719E+05 J/mol
3Y Testing if any gridpoint is below the calculated equilibrium
--->OC6:--->OC6:
Overwriting previous results on ./OCoutput_matrix.OCU
3E allocating workspace:     122160          (   2160,   10000,    2)
 3E saving            3  symbols as texts
 3E used        12117  words out of       122160  for storing static data
 ceqrecsize not implemented          26
 3E Saving an equilibrium record requires     2854       0 words
 3E not storing unused equilibria from:            2
 3E Saving assessment record
 3E No experimental equilibrium range set
 3E allocating assessment head record          48
 3E no coefficients allocated
 3E no work array (assrec%wopt) allocated
Used    15059 words out of   122160,  12.33% for unformatted memory save
Written workspace      60236 bytes unformatted on ./OCoutput_matrix.OCU
--->OC6:--->OC6:Output on file: ./OCoutput_matrix.DAT
Output unit reset to screen:    6
--->OC6:--->OC6:
[OC output] ./OCoutput_matrix.DAT
----------------------------------------

%%%%%%%%%% OC output written: 2026-04-20  11h29

Output for equilibrium:   1, DEFAULT_EQUILIBRIUM          2026.04.20
Conditions .................................................:
  1:T=1733, 2:P=472000, 3:N(O)=0.66499, 4:N(PU)=.0719989, 5:N(U)=0.263011
 Degrees of freedom are   0

Some global data, reference state SER ......................:
T=   1733.00 K (  1459.85 C), P=  4.7200E+05 Pa, V=  0.0000E+00 m3
N=   1.0000E+00 moles, B=   9.0816E+01 g, RT=   1.4409E+04 J/mol
G= -4.50187E+05 J, G/N=-4.5019E+05 J/mol, H=-3.1985E+05 J, S= 7.521E+01 J/K

Some data for components ...................................:
Component name    Moles      Mole-fr  Chem.pot/RT  Activities  Ref.state
O                 6.6499E-01  0.66499 -1.6047E+01  1.0734E-07  GAS             
PU                7.1999E-02  0.07200 -3.5181E+01  5.2608E-16  SER (default)   
U                 2.6301E-01  0.26301 -3.4817E+01  7.5688E-16  SER (default)   

Some data for phases .......................................:
Name                Status Moles      Volume    Form.Units Cmp/FU dGm/RT  Comp:
C1_MO2#1................ E  1.000E+00  0.00E+00  3.35E-01    2.98  0.00E+00  X:
 O      6.64990E-01  U      2.63011E-01  PU     7.19989E-02


----------------------------------------

[OC parser] Parsed components
  O : moles=0.66499, x=0.66499, mu/RT=-16.047, activity=1.0734e-07, ref=GAS
  Pu : moles=0.071999, x=0.072, mu/RT=-35.181, activity=5.2608e-16, ref=SER (default)
  U : moles=0.26301, x=0.26301, mu/RT=-34.817, activity=7.5688e-16, ref=SER (default)

[OC parser] Parsed phases
  Phase condensed : moles=1, volume=0
    Elements
      O = 1.98167
      Pu = 0.214557
      U = 0.783773
    Species
      C1_MO2 : moles=1, volume=0
        O = 1.98167
        Pu = 0.214557
        U = 0.783773
OpenCalphad attempt for 'at grain boundary' with WARM-START

[OC input] ./OCinput_fission_products.OCM
----------------------------------------
r u ./OCoutput_fission_products.OCU

set ref o gas * 100000

set c t=1733
set c p=472000
set c n(cs)=6.01613e-05
set c n(mo)=0.000292703
set c n(o)=0.999647
c e
set c n(o)=none
set c mu(o)=-462432

c w

save u ./OCoutput_fission_products Y

l /out=./OCoutput_fission_products.DAT r 1

fin
----------------------------------------

3A unfished preparations for XTDB


Open Calphad (OC) software version   6.106 , linked 2026-04-16
with command line monitor version  73

This program is available with a GNU General Public License.
either version 2 of the License, or any later version.
It includes the General Thermodynamic Package, version GTP-3.31,
Hillert's equilibrium calculation algorithm version HMS-3.0 ,
step/map/plot software version SMP-2.30 using GNUPLOT 5.2 graphics.
Numerical routines are extracted from LAPACK and BLAS and
the assessment procedure uses LMDIF from ANL.

Linked with OpenMp for parallel execution
 Warning, no environment variable OCHOME and no help file
 Working directory is: /home/ecappellari/transparant/sciantix-official/regression/test_JOG_MOX/point_04_r_1p2mm
--->OC6:
Read unformatted file: This is a save file for OC version:     OCF-3.20
Generated:  2026.04.20 11h29

 3E reading unformatted:        16646           0           0
3E Addition type   1, Inden-Hillert magn model for BCC_A2
3E Addition type   1, Inden-Hillert magn model for FCC_A1
3E Addition type   1, Inden-Hillert magn model for HCP_A3
 3E no experimental data
 3E no coefficient values saved
 3E Read assessment record
 No coefficients allocated
--->OC6:--->OC6:--->OC6:--->OC6:--->OC6:--->OC6:--->OC6:--->OC6:--->OC6:
Error codes:   4144     0    50
Message: Degrees of freedom not zero

--->OC6:--->OC6:--->OC6:--->OC6:Equilibrium result:  10 its,  4.9400E-04 s,      1 cc, GS= -4.1396477E+01 J/mol
3Y Testing if any gridpoint is below the calculated equilibrium
--->OC6:--->OC6:
Overwriting previous results on ./OCoutput_fission_products.OCU
3E allocating workspace:     123330          (   3330,   10000,    2)
 3E saving            3  symbols as texts
 3E used        12291  words out of       123330  for storing static data
 ceqrecsize not implemented          40
 3E Saving an equilibrium record requires     4302       0 words
 3E not storing unused equilibria from:            2
 3E Saving assessment record
 3E No experimental equilibrium range set
 3E allocating assessment head record          48
 3E no coefficients allocated
 3E no work array (assrec%wopt) allocated
Used    16681 words out of   123330,  13.53% for unformatted memory save
Written workspace      66724 bytes unformatted on ./OCoutput_fission_products.OCU
--->OC6:--->OC6:Output on file: ./OCoutput_fission_products.DAT
Output unit reset to screen:    6
--->OC6:--->OC6:
[OC output] ./OCoutput_fission_products.DAT
----------------------------------------

%%%%%%%%%% OC output written: 2026-04-20  11h29

Output for equilibrium:   1, DEFAULT_EQUILIBRIUM          2026.04.20
Conditions .................................................:
  1:T=1733, 2:P=472000, 3:N(CS)=6.01613E-05, 4:N(MO)=.000292703, 5:MU(O)=
    -462432
 Degrees of freedom are   0

Some global data, reference state SER ......................:
T=   1733.00 K (  1459.85 C), P=  4.7200E+05 Pa, V=  1.7839E-06 m3
N=   3.5286E-04 moles, B=   3.6078E-02 g, RT=   1.4409E+04 J/mol
G= -4.13965E+01 J, G/N=-1.1732E+05 J/mol, H= 1.8378E+01 J, S= 3.449E-02 J/K

Some data for components ...................................:
Component name    Moles      Mole-fr  Chem.pot/RT  Activities  Ref.state
CS                6.0161E-05  0.17049 -1.6610E+01  6.1150E-08  SER (default)   
MO                2.9270E-04  0.82951 -6.4013E+00  1.6594E-03  SER (default)   
O                 1.8155E-15  0.00000 -3.2093E+01  1.1538E-14  GAS             

Some data for phases .......................................:
Name                Status Moles      Volume    Form.Units Cmp/FU dGm/RT  Comp:
GAS..................... E  5.963E-05  1.78E-06  5.84E-05    1.02  0.00E+00  X:
 CS     1.00000E+00  O      1.42145E-11  MO     1.70800E-13
Constitution: There are    18 constituents:
 CS           9.79572E-01  MO2          1.12081E-19  MO3O9        1.00000E-30
 CS2          2.04278E-02  MOO          3.95923E-20  MOO3         1.00000E-30
 CS2O         1.44851E-11  CS2O2        3.22460E-26  MO2O6        1.00000E-30
 MO           1.74288E-13  MOO2         1.94917E-26  MO5O15       1.00000E-30
 CSO          1.98050E-14  O2           1.33114E-28  O3           1.00000E-30
 O            3.34533E-19  MO4O12       1.00000E-30  CS2MOO4      1.00000E-30

BCC_A2_CHKD#2........... E  2.932E-04  0.00E+00  2.93E-04    1.00  0.00E+00  X:
 MO     9.98185E-01  CS     1.81518E-03  O      3.30066E-12


----------------------------------------

[OC parser] Parsed components
  Cs : moles=6.0161e-05, x=0.17049, mu/RT=-16.61, activity=6.115e-08, ref=SER (default)
  Mo : moles=0.0002927, x=0.82951, mu/RT=-6.4013, activity=0.0016594, ref=SER (default)
  O : moles=1.8155e-15, x=0, mu/RT=-32.093, activity=1.1538e-14, ref=GAS

[OC parser] Parsed phases
  Phase condensed : moles=0.0002932, volume=0
    Elements
      Cs = 5.32211e-07
      Mo = 0.000292668
      O = 9.67754e-16
    Species
      BCC_A2 : moles=0.0002932, volume=0
        Cs = 5.32211e-07
        Mo = 0.000292668
        O = 9.67754e-16
  Phase gas : moles=5.963e-05, volume=1.78e-06
    Elements
      Cs = 5.963e-05
      Mo = 1.01848e-17
      O = 8.47611e-16
    Species
      CS : moles=5.84119e-05, volume=0
      CS2 : moles=1.21811e-06, volume=0
      CS2MOO4 : moles=5.963e-35, volume=0
      CS2O : moles=8.63747e-16, volume=0
      CS2O2 : moles=1.92283e-30, volume=0
      CSO : moles=1.18097e-18, volume=0
      MO : moles=1.03928e-17, volume=0
      MO2 : moles=6.68339e-24, volume=0
      MO2O6 : moles=5.963e-35, volume=0
      MO3O9 : moles=5.963e-35, volume=0
      MO4O12 : moles=5.963e-35, volume=0
      MO5O15 : moles=5.963e-35, volume=0
      MOO : moles=2.36089e-24, volume=0
      MOO2 : moles=1.16229e-30, volume=0
      MOO3 : moles=5.963e-35, volume=0
      O : moles=1.99482e-23, volume=0
      O2 : moles=7.93759e-33, volume=0
      O3 : moles=5.963e-35, volume=0
      are : moles=0.00107334, volume=0
OpenCalphad attempt for 'matrix' with WARM-START

[OC input] ./OCinput_matrix.OCM
----------------------------------------
r u ./OCoutput_matrix.OCU

set ref o gas * 100000

set c t=1733
set c p=540000
set c n(o)=0.665272
set c n(pu)=0.0716057
set c n(u)=0.263122
c e
c w

save u ./OCoutput_matrix Y

l /out=./OCoutput_matrix.DAT r 1

fin
----------------------------------------

3A unfished preparations for XTDB


Open Calphad (OC) software version   6.106 , linked 2026-04-16
with command line monitor version  73

This program is available with a GNU General Public License.
either version 2 of the License, or any later version.
It includes the General Thermodynamic Package, version GTP-3.31,
Hillert's equilibrium calculation algorithm version HMS-3.0 ,
step/map/plot software version SMP-2.30 using GNUPLOT 5.2 graphics.
Numerical routines are extracted from LAPACK and BLAS and
the assessment procedure uses LMDIF from ANL.

Linked with OpenMp for parallel execution
 Warning, no environment variable OCHOME and no help file
 Working directory is: /home/ecappellari/transparant/sciantix-official/regression/test_JOG_MOX/point_04_r_1p2mm
--->OC6:
Read unformatted file: This is a save file for OC version:     OCF-3.20
Generated:  2026.04.20 11h29

 3E reading unformatted:        15024           0           0
3E Addition type   1, Inden-Hillert magn model for BCC_A2
3E Addition type   1, Inden-Hillert magn model for FCC_A1
 3E no experimental data
 3E no coefficient values saved
 3E Read assessment record
 No coefficients allocated
--->OC6:--->OC6:--->OC6:--->OC6:--->OC6:--->OC6:--->OC6:--->OC6:--->OC6:3Y Removed  1 gridpoints by merging
Gridmin:    7483 points   9.03E-03 s and       8 clockcycles, T= 1733.00
 3Y leaving global_gridmin
Phase change iteration:     4  -C1_MO2_AUTO#2
Equilibrium result:  16 its,  1.0472E-02 s,     10 cc, GS= -4.5016160E+05 J/mol
--->OC6:Equilibrium result:  23 its,  8.4300E-04 s,      1 cc, GS= -4.5016160E+05 J/mol
3Y Testing if any gridpoint is below the calculated equilibrium
--->OC6:--->OC6:
Overwriting previous results on ./OCoutput_matrix.OCU
3E allocating workspace:     122160          (   2160,   10000,    2)
 3E saving            3  symbols as texts
 3E used        12117  words out of       122160  for storing static data
 ceqrecsize not implemented          26
 3E Saving an equilibrium record requires     2854       0 words
 3E not storing unused equilibria from:            2
 3E Saving assessment record
 3E No experimental equilibrium range set
 3E allocating assessment head record          48
 3E no coefficients allocated
 3E no work array (assrec%wopt) allocated
Used    15059 words out of   122160,  12.33% for unformatted memory save
Written workspace      60236 bytes unformatted on ./OCoutput_matrix.OCU
--->OC6:--->OC6:Output on file: ./OCoutput_matrix.DAT
Output unit reset to screen:    6
--->OC6:--->OC6:
[OC output] ./OCoutput_matrix.DAT
----------------------------------------

%%%%%%%%%% OC output written: 2026-04-20  11h29

Output for equilibrium:   1, DEFAULT_EQUILIBRIUM          2026.04.20
Conditions .................................................:
  1:T=1733, 2:P=540000, 3:N(O)=0.665272, 4:N(PU)=.0716057, 5:N(U)=0.263122
 Degrees of freedom are   0

Some global data, reference state SER ......................:
T=   1733.00 K (  1459.85 C), P=  5.4000E+05 Pa, V=  0.0000E+00 m3
N=   1.0000E+00 moles, B=   9.0751E+01 g, RT=   1.4409E+04 J/mol
G= -4.50162E+05 J, G/N=-4.5016E+05 J/mol, H=-3.1992E+05 J, S= 7.515E+01 J/K

Some data for components ...................................:
Component name    Moles      Mole-fr  Chem.pot/RT  Activities  Ref.state
O                 6.6527E-01  0.66527 -1.5868E+01  1.2841E-07  GAS             
PU                7.1606E-02  0.07161 -3.5658E+01  3.2667E-16  SER (default)   
U                 2.6312E-01  0.26312 -3.5311E+01  4.6221E-16  SER (default)   

Some data for phases .......................................:
Name                Status Moles      Volume    Form.Units Cmp/FU dGm/RT  Comp:
C1_MO2#1................ E  1.000E+00  0.00E+00  3.35E-01    2.99  0.00E+00  X:
 O      6.65272E-01  U      2.63122E-01  PU     7.16057E-02


----------------------------------------

[OC parser] Parsed components
  O : moles=0.66527, x=0.66527, mu/RT=-15.868, activity=1.2841e-07, ref=GAS
  Pu : moles=0.071606, x=0.07161, mu/RT=-35.658, activity=3.2667e-16, ref=SER (default)
  U : moles=0.26312, x=0.26312, mu/RT=-35.311, activity=4.6221e-16, ref=SER (default)

[OC parser] Parsed phases
  Phase condensed : moles=1, volume=0
    Elements
      O = 1.98916
      Pu = 0.214101
      U = 0.786735
    Species
      C1_MO2 : moles=1, volume=0
        O = 1.98916
        Pu = 0.214101
        U = 0.786735
OpenCalphad attempt for 'at grain boundary' with WARM-START

[OC input] ./OCinput_fission_products.OCM
----------------------------------------
r u ./OCoutput_fission_products.OCU

set ref o gas * 100000

set c t=1733
set c p=540000
set c n(cs)=8.61537e-05
set c n(mo)=0.000393112
set c n(o)=0.999521
c e
set c n(o)=none
set c mu(o)=-457274

c w

save u ./OCoutput_fission_products Y

l /out=./OCoutput_fission_products.DAT r 1

fin
----------------------------------------

3A unfished preparations for XTDB


Open Calphad (OC) software version   6.106 , linked 2026-04-16
with command line monitor version  73

This program is available with a GNU General Public License.
either version 2 of the License, or any later version.
It includes the General Thermodynamic Package, version GTP-3.31,
Hillert's equilibrium calculation algorithm version HMS-3.0 ,
step/map/plot software version SMP-2.30 using GNUPLOT 5.2 graphics.
Numerical routines are extracted from LAPACK and BLAS and
the assessment procedure uses LMDIF from ANL.

Linked with OpenMp for parallel execution
 Warning, no environment variable OCHOME and no help file
 Working directory is: /home/ecappellari/transparant/sciantix-official/regression/test_JOG_MOX/point_04_r_1p2mm
--->OC6:
Read unformatted file: This is a save file for OC version:     OCF-3.20
Generated:  2026.04.20 11h29

 3E reading unformatted:        16646           0           0
3E Addition type   1, Inden-Hillert magn model for BCC_A2
3E Addition type   1, Inden-Hillert magn model for FCC_A1
3E Addition type   1, Inden-Hillert magn model for HCP_A3
 3E no experimental data
 3E no coefficient values saved
 3E Read assessment record
 No coefficients allocated
--->OC6:--->OC6:--->OC6:--->OC6:--->OC6:--->OC6:--->OC6:--->OC6:--->OC6:
Error codes:   4144     0    50
Message: Degrees of freedom not zero

--->OC6:--->OC6:--->OC6:--->OC6:Equilibrium result:  10 its,  5.3700E-04 s,      1 cc, GS= -5.6716627E+01 J/mol
3Y Testing if any gridpoint is below the calculated equilibrium
--->OC6:--->OC6:
Overwriting previous results on ./OCoutput_fission_products.OCU
3E allocating workspace:     123330          (   3330,   10000,    2)
 3E saving            3  symbols as texts
 3E used        12291  words out of       123330  for storing static data
 ceqrecsize not implemented          40
 3E Saving an equilibrium record requires     4302       0 words
 3E not storing unused equilibria from:            2
 3E Saving assessment record
 3E No experimental equilibrium range set
 3E allocating assessment head record          48
 3E no coefficients allocated
 3E no work array (assrec%wopt) allocated
Used    16681 words out of   123330,  13.53% for unformatted memory save
Written workspace      66724 bytes unformatted on ./OCoutput_fission_products.OCU
--->OC6:--->OC6:Output on file: ./OCoutput_fission_products.DAT
Output unit reset to screen:    6
--->OC6:--->OC6:
[OC output] ./OCoutput_fission_products.DAT
----------------------------------------

%%%%%%%%%% OC output written: 2026-04-20  11h29

Output for equilibrium:   1, DEFAULT_EQUILIBRIUM          2026.04.20
Conditions .................................................:
  1:T=1733, 2:P=540000, 3:N(CS)=8.61537E-05, 4:N(MO)=.000393112, 5:MU(O)=
    -457274
 Degrees of freedom are   0

Some global data, reference state SER ......................:
T=   1733.00 K (  1459.85 C), P=  5.4000E+05 Pa, V=  2.2254E-06 m3
N=   4.7927E-04 moles, B=   4.9166E-02 g, RT=   1.4409E+04 J/mol
G= -5.67166E+01 J, G/N=-1.1834E+05 J/mol, H= 2.5233E+01 J, S= 4.729E-02 J/K

Some data for components ...................................:
Component name    Moles      Mole-fr  Chem.pot/RT  Activities  Ref.state
CS                8.6154E-05  0.17976 -1.6478E+01  6.9760E-08  SER (default)   
MO                3.9311E-04  0.82024 -6.4015E+00  1.6590E-03  SER (default)   
O                 3.4052E-15  0.00000 -3.1735E+01  1.6504E-14  GAS             

Some data for phases .......................................:
Name                Status Moles      Volume    Form.Units Cmp/FU dGm/RT  Comp:
GAS..................... E  8.534E-05  2.23E-06  8.34E-05    1.02  0.00E+00  X:
 CS     1.00000E+00  O      2.46668E-11  MO     1.48843E-13
Constitution: There are    18 constituents:
 CS           9.76763E-01  MO2          9.79168E-20  MO3O9        1.00000E-30
 CS2          2.32370E-02  MOO          5.29344E-20  MOO3         1.00000E-30
 CS2O         2.52098E-11  CS2O2        8.58644E-26  MO2O6        1.00000E-30
 MO           1.52302E-13  MOO2         3.98720E-26  MO5O15       1.00000E-30
 CSO          3.02147E-14  O2           2.72366E-28  O3           1.00000E-30
 O            4.47381E-19  MO4O12       1.00000E-30  CS2MOO4      1.00000E-30

BCC_A2_CHKD#2........... E  3.939E-04  0.00E+00  3.94E-04    1.00  0.00E+00  X:
 MO     9.97926E-01  CS     2.07446E-03  O      3.30066E-12


----------------------------------------

[OC parser] Parsed components
  Cs : moles=8.6154e-05, x=0.17976, mu/RT=-16.478, activity=6.976e-08, ref=SER (default)
  Mo : moles=0.00039311, x=0.82024, mu/RT=-6.4015, activity=0.001659, ref=SER (default)
  O : moles=3.4052e-15, x=0, mu/RT=-31.735, activity=1.6504e-14, ref=GAS

[OC parser] Parsed phases
  Phase condensed : moles=0.0003939, volume=0
    Elements
      Cs = 8.1713e-07
      Mo = 0.000393083
      O = 1.30013e-15
    Species
      BCC_A2 : moles=0.0003939, volume=0
        Cs = 8.1713e-07
        Mo = 0.000393083
        O = 1.30013e-15
  Phase gas : moles=8.534e-05, volume=2.23e-06
    Elements
      Cs = 8.534e-05
      Mo = 1.27023e-17
      O = 2.10506e-15
    Species
      CS : moles=8.3357e-05, volume=0
      CS2 : moles=1.98305e-06, volume=0
      CS2MOO4 : moles=8.534e-35, volume=0
      CS2O : moles=2.1514e-15, volume=0
      CS2O2 : moles=7.32767e-30, volume=0
      CSO : moles=2.57852e-18, volume=0
      MO : moles=1.29975e-17, volume=0
      MO2 : moles=8.35622e-24, volume=0
      MO2O6 : moles=8.534e-35, volume=0
      MO3O9 : moles=8.534e-35, volume=0
      MO4O12 : moles=8.534e-35, volume=0
      MO5O15 : moles=8.534e-35, volume=0
      MOO : moles=4.51742e-24, volume=0
      MOO2 : moles=3.40268e-30, volume=0
      MOO3 : moles=8.534e-35, volume=0
      O : moles=3.81795e-23, volume=0
      O2 : moles=2.32437e-32, volume=0
      O3 : moles=8.534e-35, volume=0
      are : moles=0.00153612, volume=0
OpenCalphad attempt for 'matrix' with WARM-START

[OC input] ./OCinput_matrix.OCM
----------------------------------------
r u ./OCoutput_matrix.OCU

set ref o gas * 100000

set c t=1733
set c p=608000
set c n(o)=0.665554
set c n(pu)=0.0712122
set c n(u)=0.263234
c e
c w

save u ./OCoutput_matrix Y

l /out=./OCoutput_matrix.DAT r 1

fin
----------------------------------------

3A unfished preparations for XTDB


Open Calphad (OC) software version   6.106 , linked 2026-04-16
with command line monitor version  73

This program is available with a GNU General Public License.
either version 2 of the License, or any later version.
It includes the General Thermodynamic Package, version GTP-3.31,
Hillert's equilibrium calculation algorithm version HMS-3.0 ,
step/map/plot software version SMP-2.30 using GNUPLOT 5.2 graphics.
Numerical routines are extracted from LAPACK and BLAS and
the assessment procedure uses LMDIF from ANL.

Linked with OpenMp for parallel execution
 Warning, no environment variable OCHOME and no help file
 Working directory is: /home/ecappellari/transparant/sciantix-official/regression/test_JOG_MOX/point_04_r_1p2mm
--->OC6:
Read unformatted file: This is a save file for OC version:     OCF-3.20
Generated:  2026.04.20 11h29

 3E reading unformatted:        15024           0           0
3E Addition type   1, Inden-Hillert magn model for BCC_A2
3E Addition type   1, Inden-Hillert magn model for FCC_A1
 3E no experimental data
 3E no coefficient values saved
 3E Read assessment record
 No coefficients allocated
--->OC6:--->OC6:--->OC6:--->OC6:--->OC6:--->OC6:--->OC6:--->OC6:--->OC6:3Y Removed  1 gridpoints by merging
Gridmin:    7483 points   1.02E-02 s and       9 clockcycles, T= 1733.00
 3Y leaving global_gridmin
Phase change iteration:     4  -C1_MO2_AUTO#2
Equilibrium result:  16 its,  1.0965E-02 s,     11 cc, GS= -4.5013324E+05 J/mol
--->OC6:Equilibrium result:  21 its,  8.3100E-04 s,      1 cc, GS= -4.5013324E+05 J/mol
3Y Testing if any gridpoint is below the calculated equilibrium
--->OC6:--->OC6:
Overwriting previous results on ./OCoutput_matrix.OCU
3E allocating workspace:     122160          (   2160,   10000,    2)
 3E saving            3  symbols as texts
 3E used        12117  words out of       122160  for storing static data
 ceqrecsize not implemented          26
 3E Saving an equilibrium record requires     2854       0 words
 3E not storing unused equilibria from:            2
 3E Saving assessment record
 3E No experimental equilibrium range set
 3E allocating assessment head record          48
 3E no coefficients allocated
 3E no work array (assrec%wopt) allocated
Used    15059 words out of   122160,  12.33% for unformatted memory save
Written workspace      60236 bytes unformatted on ./OCoutput_matrix.OCU
--->OC6:--->OC6:Output on file: ./OCoutput_matrix.DAT
Output unit reset to screen:    6
--->OC6:--->OC6:
[OC output] ./OCoutput_matrix.DAT
----------------------------------------

%%%%%%%%%% OC output written: 2026-04-20  11h29

Output for equilibrium:   1, DEFAULT_EQUILIBRIUM          2026.04.20
Conditions .................................................:
  1:T=1733, 2:P=608000, 3:N(O)=0.665554, 4:N(PU)=.0712122, 5:N(U)=0.263234
 Degrees of freedom are   0

Some global data, reference state SER ......................:
T=   1733.00 K (  1459.85 C), P=  6.0800E+05 Pa, V=  0.0000E+00 m3
N=   1.0000E+00 moles, B=   9.0686E+01 g, RT=   1.4409E+04 J/mol
G= -4.50133E+05 J, G/N=-4.5013E+05 J/mol, H=-3.2000E+05 J, S= 7.509E+01 J/K

Some data for components ...................................:
Component name    Moles      Mole-fr  Chem.pot/RT  Activities  Ref.state
O                 6.6555E-01  0.66555 -1.5641E+01  1.6113E-07  GAS             
PU                7.1212E-02  0.07121 -3.6214E+01  1.8730E-16  SER (default)   
U                 2.6323E-01  0.26323 -3.5883E+01  2.6061E-16  SER (default)   

Some data for phases .......................................:
Name                Status Moles      Volume    Form.Units Cmp/FU dGm/RT  Comp:
C1_MO2#1................ E  1.000E+00  0.00E+00  3.34E-01    2.99  0.00E+00  X:
 O      6.65554E-01  U      2.63234E-01  PU     7.12122E-02


----------------------------------------

[OC parser] Parsed components
  O : moles=0.66555, x=0.66555, mu/RT=-15.641, activity=1.6113e-07, ref=GAS
  Pu : moles=0.071212, x=0.07121, mu/RT=-36.214, activity=1.873e-16, ref=SER (default)
  U : moles=0.26323, x=0.26323, mu/RT=-35.883, activity=2.6061e-16, ref=SER (default)

[OC parser] Parsed phases
  Phase condensed : moles=1, volume=0
    Elements
      O = 1.99001
      Pu = 0.212924
      U = 0.78707
    Species
      C1_MO2 : moles=1, volume=0
        O = 1.99001
        Pu = 0.212924
        U = 0.78707
OpenCalphad attempt for 'at grain boundary' with WARM-START

[OC input] ./OCinput_fission_products.OCM
----------------------------------------
r u ./OCoutput_fission_products.OCU

set ref o gas * 100000

set c t=1733
set c p=608000
set c n(cs)=0.000116971
set c n(mo)=0.000499825
set c n(o)=0.999383
c e
set c n(o)=none
set c mu(o)=-450732

c w

save u ./OCoutput_fission_products Y

l /out=./OCoutput_fission_products.DAT r 1

fin
----------------------------------------

3A unfished preparations for XTDB


Open Calphad (OC) software version   6.106 , linked 2026-04-16
with command line monitor version  73

This program is available with a GNU General Public License.
either version 2 of the License, or any later version.
It includes the General Thermodynamic Package, version GTP-3.31,
Hillert's equilibrium calculation algorithm version HMS-3.0 ,
step/map/plot software version SMP-2.30 using GNUPLOT 5.2 graphics.
Numerical routines are extracted from LAPACK and BLAS and
the assessment procedure uses LMDIF from ANL.

Linked with OpenMp for parallel execution
 Warning, no environment variable OCHOME and no help file
 Working directory is: /home/ecappellari/transparant/sciantix-official/regression/test_JOG_MOX/point_04_r_1p2mm
--->OC6:
Read unformatted file: This is a save file for OC version:     OCF-3.20
Generated:  2026.04.20 11h29

 3E reading unformatted:        16646           0           0
3E Addition type   1, Inden-Hillert magn model for BCC_A2
3E Addition type   1, Inden-Hillert magn model for FCC_A1
3E Addition type   1, Inden-Hillert magn model for HCP_A3
 3E no experimental data
 3E no coefficient values saved
 3E Read assessment record
 No coefficients allocated
--->OC6:--->OC6:--->OC6:--->OC6:--->OC6:--->OC6:--->OC6:--->OC6:--->OC6:
Error codes:   4144     0    50
Message: Degrees of freedom not zero

--->OC6:--->OC6:--->OC6:--->OC6:Equilibrium result:  12 its,  5.4400E-04 s,      1 cc, GS= -7.3683698E+01 J/mol
3Y Testing if any gridpoint is below the calculated equilibrium
--->OC6:--->OC6:
Overwriting previous results on ./OCoutput_fission_products.OCU
3E allocating workspace:     123330          (   3330,   10000,    2)
 3E saving            3  symbols as texts
 3E used        12291  words out of       123330  for storing static data
 ceqrecsize not implemented          40
 3E Saving an equilibrium record requires     4302       0 words
 3E not storing unused equilibria from:            2
 3E Saving assessment record
 3E No experimental equilibrium range set
 3E allocating assessment head record          48
 3E no coefficients allocated
 3E no work array (assrec%wopt) allocated
Used    16681 words out of   123330,  13.53% for unformatted memory save
Written workspace      66724 bytes unformatted on ./OCoutput_fission_products.OCU
--->OC6:--->OC6:Output on file: ./OCoutput_fission_products.DAT
Output unit reset to screen:    6
--->OC6:--->OC6:
[OC output] ./OCoutput_fission_products.DAT
----------------------------------------

%%%%%%%%%% OC output written: 2026-04-20  11h29

Output for equilibrium:   1, DEFAULT_EQUILIBRIUM          2026.04.20
Conditions .................................................:
  1:T=1733, 2:P=608000, 3:N(CS)=.000116971, 4:N(MO)=.000499825, 5:MU(O)=
    -450732
 Degrees of freedom are   0

Some global data, reference state SER ......................:
T=   1733.00 K (  1459.85 C), P=  6.0800E+05 Pa, V=  2.6748E-06 m3
N=   6.1680E-04 moles, B=   6.3500E-02 g, RT=   1.4409E+04 J/mol
G= -7.36837E+01 J, G/N=-1.1946E+05 J/mol, H= 3.2847E+01 J, S= 6.147E-02 J/K

Some data for components ...................................:
Component name    Moles      Mole-fr  Chem.pot/RT  Activities  Ref.state
CS                1.1697E-04  0.18964 -1.6362E+01  7.8321E-08  SER (default)   
MO                4.9982E-04  0.81036 -6.4018E+00  1.6586E-03  SER (default)   
O                 6.9816E-15  0.00000 -3.1281E+01  2.5987E-14  GAS             

Some data for phases .......................................:
Name                Status Moles      Volume    Form.Units Cmp/FU dGm/RT  Comp:
GAS..................... E  1.158E-04  2.67E-06  1.13E-04    1.03  0.00E+00  X:
 CS     1.00000E+00  O      4.60096E-11  MO     1.31805E-13
Constitution: There are    18 constituents:
 CS           9.73985E-01  MO2          8.69212E-20  MO4O12       1.00000E-30
 CS2          2.60145E-02  MOO          7.85328E-20  MOO3         1.00000E-30
 CS2O         4.71562E-11  CS2O2        2.68359E-25  MO3O9        1.00000E-30
 MO           1.35234E-13  MOO2         9.88357E-26  MO2O6        1.00000E-30
 CSO          5.03402E-14  O2           6.75320E-28  O3           1.00000E-30
 O            6.63897E-19  CS2MOO4      7.72025E-30  MO5O15       1.00000E-30

BCC_A2_CHKD#2........... E  5.010E-04  0.00E+00  5.01E-04    1.00  0.00E+00  X:
 MO     9.97667E-01  CS     2.33322E-03  O      3.30066E-12


----------------------------------------

[OC parser] Parsed components
  Cs : moles=0.00011697, x=0.18964, mu/RT=-16.362, activity=7.8321e-08, ref=SER (default)
  Mo : moles=0.00049982, x=0.81036, mu/RT=-6.4018, activity=0.0016586, ref=SER (default)
  O : moles=6.9816e-15, x=0, mu/RT=-31.281, activity=2.5987e-14, ref=GAS

[OC parser] Parsed phases
  Phase condensed : moles=0.000501, volume=0
    Elements
      Cs = 1.16894e-06
      Mo = 0.000499831
      O = 1.65363e-15
    Species
      BCC_A2 : moles=0.000501, volume=0
        Cs = 1.16894e-06
        Mo = 0.000499831
        O = 1.65363e-15
  Phase gas : moles=0.0001158, volume=2.67e-06
    Elements
      Cs = 0.0001158
      Mo = 1.5263e-17
      O = 5.32791e-15
    Species
      CS : moles=0.000112787, volume=0
      CS2 : moles=3.01248e-06, volume=0
      CS2MOO4 : moles=8.94005e-34, volume=0
      CS2O : moles=5.46069e-15, volume=0
      CS2O2 : moles=3.1076e-29, volume=0
      CSO : moles=5.8294e-18, volume=0
      MO : moles=1.56601e-17, volume=0
      MO2 : moles=1.00655e-23, volume=0
      MO2O6 : moles=1.158e-34, volume=0
      MO3O9 : moles=1.158e-34, volume=0
      MO4O12 : moles=1.158e-34, volume=0
      MO5O15 : moles=1.158e-34, volume=0
      MOO : moles=9.0941e-24, volume=0
      MOO2 : moles=1.14452e-29, volume=0
      MOO3 : moles=1.158e-34, volume=0
      O : moles=7.68793e-23, volume=0
      O2 : moles=7.82021e-32, volume=0
      O3 : moles=1.158e-34, volume=0
      are : moles=0.0020844, volume=0
OpenCalphad attempt for 'matrix' with WARM-START

[OC input] ./OCinput_matrix.OCM
----------------------------------------
r u ./OCoutput_matrix.OCU

set ref o gas * 100000

set c t=1733
set c p=676000
set c n(o)=0.665836
set c n(pu)=0.0708183
set c n(u)=0.263346
c e
c w

save u ./OCoutput_matrix Y

l /out=./OCoutput_matrix.DAT r 1

fin
----------------------------------------

3A unfished preparations for XTDB


Open Calphad (OC) software version   6.106 , linked 2026-04-16
with command line monitor version  73

This program is available with a GNU General Public License.
either version 2 of the License, or any later version.
It includes the General Thermodynamic Package, version GTP-3.31,
Hillert's equilibrium calculation algorithm version HMS-3.0 ,
step/map/plot software version SMP-2.30 using GNUPLOT 5.2 graphics.
Numerical routines are extracted from LAPACK and BLAS and
the assessment procedure uses LMDIF from ANL.

Linked with OpenMp for parallel execution
 Warning, no environment variable OCHOME and no help file
 Working directory is: /home/ecappellari/transparant/sciantix-official/regression/test_JOG_MOX/point_04_r_1p2mm
--->OC6:
Read unformatted file: This is a save file for OC version:     OCF-3.20
Generated:  2026.04.20 11h29

 3E reading unformatted:        15024           0           0
3E Addition type   1, Inden-Hillert magn model for BCC_A2
3E Addition type   1, Inden-Hillert magn model for FCC_A1
 3E no experimental data
 3E no coefficient values saved
 3E Read assessment record
 No coefficients allocated
--->OC6:--->OC6:--->OC6:--->OC6:--->OC6:--->OC6:--->OC6:--->OC6:--->OC6:3Y Removed  1 gridpoints by merging
Gridmin:    7483 points   1.03E-02 s and       8 clockcycles, T= 1733.00
 3Y leaving global_gridmin
Phase change iteration:     4  -C1_MO2_AUTO#2
Equilibrium result:  16 its,  1.1133E-02 s,     11 cc, GS= -4.5010091E+05 J/mol
--->OC6:Equilibrium result:  17 its,  6.5700E-04 s,      1 cc, GS= -4.5010091E+05 J/mol
3Y Testing if any gridpoint is below the calculated equilibrium
--->OC6:--->OC6:
Overwriting previous results on ./OCoutput_matrix.OCU
3E allocating workspace:     122160          (   2160,   10000,    2)
 3E saving            3  symbols as texts
 3E used        12117  words out of       122160  for storing static data
 ceqrecsize not implemented          26
 3E Saving an equilibrium record requires     2854       0 words
 3E not storing unused equilibria from:            2
 3E Saving assessment record
 3E No experimental equilibrium range set
 3E allocating assessment head record          48
 3E no coefficients allocated
 3E no work array (assrec%wopt) allocated
Used    15059 words out of   122160,  12.33% for unformatted memory save
Written workspace      60236 bytes unformatted on ./OCoutput_matrix.OCU
--->OC6:--->OC6:Output on file: ./OCoutput_matrix.DAT

Output unit reset to screen:    6
--->OC6:--->OC6:
[OC output] ./OCoutput_matrix.DAT
----------------------------------------

%%%%%%%%%% OC output written: 2026-04-20  11h29

Output for equilibrium:   1, DEFAULT_EQUILIBRIUM          2026.04.20
Conditions .................................................:
  1:T=1733, 2:P=676000, 3:N(O)=0.665836, 4:N(PU)=.0708183, 5:N(U)=0.263346
 Degrees of freedom are   0

Some global data, reference state SER ......................:
T=   1733.00 K (  1459.85 C), P=  6.7600E+05 Pa, V=  0.0000E+00 m3
N=   1.0000E+00 moles, B=   9.0621E+01 g, RT=   1.4409E+04 J/mol
G= -4.50101E+05 J, G/N=-4.5010E+05 J/mol, H=-3.2007E+05 J, S= 7.503E+01 J/K

Some data for components ...................................:
Component name    Moles      Mole-fr  Chem.pot/RT  Activities  Ref.state
O                 6.6584E-01  0.66584 -1.5343E+01  2.1713E-07  GAS             
PU                7.0818E-02  0.07082 -3.6900E+01  9.4304E-17  SER (default)   
U                 2.6335E-01  0.26335 -3.6587E+01  1.2901E-16  SER (default)   

Some data for phases .......................................:
Name                Status Moles      Volume    Form.Units Cmp/FU dGm/RT  Comp:
C1_MO2#1................ E  1.000E+00  0.00E+00  3.34E-01    2.99  0.00E+00  X:
 O      6.65836E-01  U      2.63346E-01  PU     7.08183E-02

C1_MO2_AUTO#2........... E  0.000E+00  0.00E+00  0.00E+00    2.64  5.27E-04  X:
 O      6.21469E-01  U      2.28867E-01  PU     1.49664E-01


 *** There are phase(s) which would like to be stable:
   C1_MO2  5.2742E-04

----------------------------------------

[OC parser] Parsed components
  O : moles=0.66584, x=0.66584, mu/RT=-15.343, activity=2.1713e-07, ref=GAS
  Pu : moles=0.070818, x=0.07082, mu/RT=-36.9, activity=9.4304e-17, ref=SER (default)
  U : moles=0.26335, x=0.26335, mu/RT=-36.587, activity=1.2901e-16, ref=SER (default)

[OC parser] Parsed phases
  Phase condensed : moles=1, volume=0
    Elements
      O = 3.63153
      Pu = 0.60686
      U = 1.39161
    Species
      C1_MO2 : moles=1, volume=0
        O = 1.64068
        Pu = 0.395113
        U = 0.604209
OpenCalphad attempt for 'at grain boundary' with WARM-START

[OC input] ./OCinput_fission_products.OCM
----------------------------------------
r u ./OCoutput_fission_products.OCU

set ref o gas * 100000

set c t=1733
set c p=676000
set c n(cs)=0.000153773
set c n(mo)=0.000611703
set c n(o)=0.999235
c e
set c n(o)=none
set c mu(o)=-442145

c w

save u ./OCoutput_fission_products Y

l /out=./OCoutput_fission_products.DAT r 1

fin
----------------------------------------

3A unfished preparations for XTDB


Open Calphad (OC) software version   6.106 , linked 2026-04-16
with command line monitor version  73

This program is available with a GNU General Public License.
either version 2 of the License, or any later version.
It includes the General Thermodynamic Package, version GTP-3.31,
Hillert's equilibrium calculation algorithm version HMS-3.0 ,
step/map/plot software version SMP-2.30 using GNUPLOT 5.2 graphics.
Numerical routines are extracted from LAPACK and BLAS and
the assessment procedure uses LMDIF from ANL.

Linked with OpenMp for parallel execution
 Warning, no environment variable OCHOME and no help file
 Working directory is: /home/ecappellari/transparant/sciantix-official/regression/test_JOG_MOX/point_04_r_1p2mm
--->OC6:
Read unformatted file: This is a save file for OC version:     OCF-3.20
Generated:  2026.04.20 11h29

 3E reading unformatted:        16646           0           0
3E Addition type   1, Inden-Hillert magn model for BCC_A2
3E Addition type   1, Inden-Hillert magn model for FCC_A1
3E Addition type   1, Inden-Hillert magn model for HCP_A3
 3E no experimental data
 3E no coefficient values saved
 3E Read assessment record
 No coefficients allocated
--->OC6:--->OC6:--->OC6:--->OC6:--->OC6:--->OC6:--->OC6:--->OC6:--->OC6:
Error codes:   4144     0    50
Message: Degrees of freedom not zero

--->OC6:--->OC6:--->OC6:--->OC6:Equilibrium result:  13 its,  5.6000E-04 s,      0 cc, GS= -9.2454052E+01 J/mol
3Y Testing if any gridpoint is below the calculated equilibrium
--->OC6:--->OC6:
Overwriting previous results on ./OCoutput_fission_products.OCU
3E allocating workspace:     123330          (   3330,   10000,    2)
 3E saving            3  symbols as texts
 3E used        12291  words out of       123330  for storing static data
 ceqrecsize not implemented          40
 3E Saving an equilibrium record requires     4302       0 words
 3E not storing unused equilibria from:            2
 3E Saving assessment record
 3E No experimental equilibrium range set
 3E allocating assessment head record          48
 3E no coefficients allocated
 3E no work array (assrec%wopt) allocated
Used    16681 words out of   123330,  13.53% for unformatted memory save
Written workspace      66724 bytes unformatted on ./OCoutput_fission_products.OCU
--->OC6:--->OC6:Output on file: ./OCoutput_fission_products.DAT
Output unit reset to screen:    6
--->OC6:--->OC6:
[OC output] ./OCoutput_fission_products.DAT
----------------------------------------

%%%%%%%%%% OC output written: 2026-04-20  11h29

Output for equilibrium:   1, DEFAULT_EQUILIBRIUM          2026.04.20
Conditions .................................................:
  1:T=1733, 2:P=676000, 3:N(CS)=.000153773, 4:N(MO)=.000611703, 5:MU(O)=
    -442145
 Degrees of freedom are   0

Some global data, reference state SER ......................:
T=   1733.00 K (  1459.85 C), P=  6.7600E+05 Pa, V=  3.1531E-06 m3
N=   7.6548E-04 moles, B=   7.9125E-02 g, RT=   1.4409E+04 J/mol
G= -9.24541E+01 J, G/N=-1.2078E+05 J/mol, H= 4.1293E+01 J, S= 7.718E-02 J/K

Some data for components ...................................:
Component name    Moles      Mole-fr  Chem.pot/RT  Activities  Ref.state
CS                1.5377E-04  0.20089 -1.6259E+01  8.6835E-08  SER (default)   
MO                6.1170E-04  0.79911 -6.4021E+00  1.6582E-03  SER (default)   
O                 1.6796E-14  0.00000 -3.0685E+01  4.7160E-14  GAS             

Some data for phases .......................................:
Name                Status Moles      Volume    Form.Units Cmp/FU dGm/RT  Comp:
GAS..................... E  1.522E-04  3.15E-06  1.48E-04    1.03  0.00E+00  X:
 CS     1.00000E+00  O      9.70665E-11  MO     1.18200E-13
Constitution: There are    18 constituents:
 CS           9.71239E-01  MOO          1.35125E-19  MO4O12       1.00000E-30
 CS2          2.87611E-02  MO2          7.81379E-20  MOO3         1.00000E-30
 CS2O         9.97622E-11  CS2O2        1.08638E-24  MO3O9        1.00000E-30
 MO           1.21599E-13  MOO2         3.25413E-25  MO2O6        1.00000E-30
 CSO          9.60562E-14  O2           2.22403E-27  O3           1.00000E-30
 O            1.14260E-18  CS2MOO4      1.14409E-28  MO5O15       1.00000E-30

BCC_A2_CHKD#2........... E  6.133E-04  0.00E+00  6.13E-04    1.00  0.00E+00  X:
 MO     9.97409E-01  CS     2.59149E-03  O      3.30066E-12


----------------------------------------

[OC parser] Parsed components
  Cs : moles=0.00015377, x=0.20089, mu/RT=-16.259, activity=8.6835e-08, ref=SER (default)
[...]
Warning: No composition information available for thermochemistry variable CS4O (condensed, at grain boundary). Molar mass cannot be computed and will be returned as zero.
Warning: No composition information available for thermochemistry variable CS7O1 (condensed, at grain boundary). Molar mass cannot be computed and will be returned as zero.
Warning: No composition information available for thermochemistry variable CS7O2 (condensed, at grain boundary). Molar mass cannot be computed and will be returned as zero.
Warning: No composition information available for thermochemistry variable CSO2 (condensed, at grain boundary). Molar mass cannot be computed and will be returned as zero.
Warning: No composition information available for thermochemistry variable CSO3 (condensed, at grain boundary). Molar mass cannot be computed and will be returned as zero.
Warning: No composition information available for thermochemistry variable DIAMOND_A4 (condensed, at grain boundary). Molar mass cannot be computed and will be returned as zero.
Warning: No composition information available for thermochemistry variable DIS_SIG (condensed, at grain boundary). Molar mass cannot be computed and will be returned as zero.
Warning: No composition information available for thermochemistry variable FCC_A1 (condensed, at grain boundary). Molar mass cannot be computed and will be returned as zero.
Warning: No composition information available for thermochemistry variable HCP_A3 (condensed, at grain boundary). Molar mass cannot be computed and will be returned as zero.
Warning: No composition information available for thermochemistry variable MC_ETA (condensed, at grain boundary). Molar mass cannot be computed and will be returned as zero.
Warning: No composition information available for thermochemistry variable MO4O11 (condensed, at grain boundary). Molar mass cannot be computed and will be returned as zero.
Warning: No composition information available for thermochemistry variable MO8O23 (condensed, at grain boundary). Molar mass cannot be computed and will be returned as zero.
Warning: No composition information available for thermochemistry variable MO9O26 (condensed, at grain boundary). Molar mass cannot be computed and will be returned as zero.
Warning: No composition information available for thermochemistry variable MOO2 (condensed, at grain boundary). Molar mass cannot be computed and will be returned as zero.
Warning: No composition information available for thermochemistry variable MOO3 (condensed, at grain boundary). Molar mass cannot be computed and will be returned as zero.
Warning: No composition information available for thermochemistry variable ORTHORHOMBIC_A20 (condensed, at grain boundary). Molar mass cannot be computed and will be returned as zero.
Warning: No composition information available for thermochemistry variable SIGMA (condensed, at grain boundary). Molar mass cannot be computed and will be returned as zero.
Warning: No composition information available for thermochemistry variable TETRAGONAL_U (condensed, at grain boundary). Molar mass cannot be computed and will be returned as zero.
Warning: No composition information available for thermochemistry variable UO3 (condensed, at grain boundary). Molar mass cannot be computed and will be returned as zero.
Warning: No composition information available for thermochemistry variable U4O9_S1 (condensed, at grain boundary). Molar mass cannot be computed and will be returned as zero.
Warning: No composition information available for thermochemistry variable U4O9_S2 (condensed, at grain boundary). Molar mass cannot be computed and will be returned as zero.
Warning: No composition information available for thermochemistry variable U4O9_S3 (condensed, at grain boundary). Molar mass cannot be computed and will be returned as zero.
Warning: No composition information available for thermochemistry variable U3O8_S1 (condensed, at grain boundary). Molar mass cannot be computed and will be returned as zero.
Warning: No composition information available for thermochemistry variable U3O8_S2 (condensed, at grain boundary). Molar mass cannot be computed and will be returned as zero.
Warning: No composition information available for thermochemistry variable U3O8_S3 (condensed, at grain boundary). Molar mass cannot be computed and will be returned as zero.
Warning: No composition information available for thermochemistry variable U3O8_S4 (condensed, at grain boundary). Molar mass cannot be computed and will be returned as zero.
STOP Au revoir
STOP Au revoir
Warning: No composition information available for thermochemistry variable UO2:VA (ionic_liquid, at grain boundary). Molar mass cannot be computed and will be returned as zero.
Warning: No composition information available for thermochemistry variable U (ionic_liquid, at grain boundary). Molar mass cannot be computed and will be returned as zero.
Warning: No composition information available for thermochemistry variable O (ionic_liquid, at grain boundary). Molar mass cannot be computed and will be returned as zero.
Warning: No composition information available for thermochemistry variable BCC_A2 (condensed, at grain boundary). Molar mass cannot be computed and will be returned as zero.
Warning: No composition information available for thermochemistry variable C1_MO2 (condensed, at grain boundary). Molar mass cannot be computed and will be returned as zero.
Warning: No composition information available for thermochemistry variable C14_LAVES (condensed, at grain boundary). Molar mass cannot be computed and will be returned as zero.
Warning: No composition information available for thermochemistry variable C15_LAVES (condensed, at grain boundary). Molar mass cannot be computed and will be returned as zero.
Warning: No composition information available for thermochemistry variable CS2MO2O7_S1 (condensed, at grain boundary). Molar mass cannot be computed and will be returned as zero.
Warning: No composition information available for thermochemistry variable CS2MO2O7_S2 (condensed, at grain boundary). Molar mass cannot be computed and will be returned as zero.
Warning: No composition information available for thermochemistry variable CS2MO3O10 (condensed, at grain boundary). Molar mass cannot be computed and will be returned as zero.
Warning: No composition information available for thermochemistry variable CS2MO4O13 (condensed, at grain boundary). Molar mass cannot be computed and will be returned as zero.
Warning: No composition information available for thermochemistry variable CS2MO5O16 (condensed, at grain boundary). Molar mass cannot be computed and will be returned as zero.
Warning: No composition information available for thermochemistry variable CS2MO7O22 (condensed, at grain boundary). Molar mass cannot be computed and will be returned as zero.
Warning: No composition information available for thermochemistry variable CS2MOO4_S1 (condensed, at grain boundary). Molar mass cannot be computed and will be returned as zero.
Warning: No composition information available for thermochemistry variable CS2MOO4_S2 (condensed, at grain boundary). Molar mass cannot be computed and will be returned as zero.
Warning: No composition information available for thermochemistry variable CS2O1 (condensed, at grain boundary). Molar mass cannot be computed and will be returned as zero.
Warning: No composition information available for thermochemistry variable CS2O2 (condensed, at grain boundary). Molar mass cannot be computed and will be returned as zero.
Warning: No composition information available for thermochemistry variable CS3O (condensed, at grain boundary). Molar mass cannot be computed and will be returned as zero.
Warning: No composition information available for thermochemistry variable CS4O (condensed, at grain boundary). Molar mass cannot be computed and will be returned as zero.
Warning: No composition information available for thermochemistry variable CS7O1 (condensed, at grain boundary). Molar mass cannot be computed and will be returned as zero.
Warning: No composition information available for thermochemistry variable CS7O2 (condensed, at grain boundary). Molar mass cannot be computed and will be returned as zero.
Warning: No composition information available for thermochemistry variable CSO2 (condensed, at grain boundary). Molar mass cannot be computed and will be returned as zero.
Warning: No composition information available for thermochemistry variable CSO3 (condensed, at grain boundary). Molar mass cannot be computed and will be returned as zero.
Warning: No composition information available for thermochemistry variable DIAMOND_A4 (condensed, at grain boundary). Molar mass cannot be computed and will be returned as zero.
Warning: No composition information available for thermochemistry variable DIS_SIG (condensed, at grain boundary). Molar mass cannot be computed and will be returned as zero.
Warning: No composition information available for thermochemistry variable FCC_A1 (condensed, at grain boundary). Molar mass cannot be computed and will be returned as zero.
Warning: No composition information available for thermochemistry variable HCP_A3 (condensed, at grain boundary). Molar mass cannot be computed and will be returned as zero.
Warning: No composition information available for thermochemistry variable MC_ETA (condensed, at grain boundary). Molar mass cannot be computed and will be returned as zero.
Warning: No composition information available for thermochemistry variable MO4O11 (condensed, at grain boundary). Molar mass cannot be computed and will be returned as zero.
Warning: No composition information available for thermochemistry variable MO8O23 (condensed, at grain boundary). Molar mass cannot be computed and will be returned as zero.
Warning: No composition information available for thermochemistry variable MO9O26 (condensed, at grain boundary). Molar mass cannot be computed and will be returned as zero.
Warning: No composition information available for thermochemistry variable MOO2 (condensed, at grain boundary). Molar mass cannot be computed and will be returned as zero.
Warning: No composition information available for thermochemistry variable MOO3 (condensed, at grain boundary). Molar mass cannot be computed and will be returned as zero.
Warning: No composition information available for thermochemistry variable ORTHORHOMBIC_A20 (condensed, at grain boundary). Molar mass cannot be computed and will be returned as zero.
Warning: No composition information available for thermochemistry variable SIGMA (condensed, at grain boundary). Molar mass cannot be computed and will be returned as zero.
Warning: No composition information available for thermochemistry variable TETRAGONAL_U (condensed, at grain boundary). Molar mass cannot be computed and will be returned as zero.
Warning: No composition information available for thermochemistry variable UO3 (condensed, at grain boundary). Molar mass cannot be computed and will be returned as zero.
Warning: No composition information available for thermochemistry variable U4O9_S1 (condensed, at grain boundary). Molar mass cannot be computed and will be returned as zero.
Warning: No composition information available for thermochemistry variable U4O9_S2 (condensed, at grain boundary). Molar mass cannot be computed and will be returned as zero.
Warning: No composition information available for thermochemistry variable U4O9_S3 (condensed, at grain boundary). Molar mass cannot be computed and will be returned as zero.
Warning: No composition information available for thermochemistry variable U3O8_S1 (condensed, at grain boundary). Molar mass cannot be computed and will be returned as zero.
Warning: No composition information available for thermochemistry variable U3O8_S2 (condensed, at grain boundary). Molar mass cannot be computed and will be returned as zero.
Warning: No composition information available for thermochemistry variable U3O8_S3 (condensed, at grain boundary). Molar mass cannot be computed and will be returned as zero.
Warning: No composition information available for thermochemistry variable U3O8_S4 (condensed, at grain boundary). Molar mass cannot be computed and will be returned as zero.
STOP Au revoir
STOP Au revoir
Warning: No composition information available for thermochemistry variable UO2:VA (ionic_liquid, at grain boundary). Molar mass cannot be computed and will be returned as zero.
Warning: No composition information available for thermochemistry variable U (ionic_liquid, at grain boundary). Molar mass cannot be computed and will be returned as zero.
Warning: No composition information available for thermochemistry variable O (ionic_liquid, at grain boundary). Molar mass cannot be computed and will be returned as zero.
Warning: No composition information available for thermochemistry variable BCC_A2 (condensed, at grain boundary). Molar mass cannot be computed and will be returned as zero.
Warning: No composition information available for thermochemistry variable C1_MO2 (condensed, at grain boundary). Molar mass cannot be computed and will be returned as zero.
Warning: No composition information available for thermochemistry variable C14_LAVES (condensed, at grain boundary). Molar mass cannot be computed and will be returned as zero.
Warning: No composition information available for thermochemistry variable C15_LAVES (condensed, at grain boundary). Molar mass cannot be computed and will be returned as zero.
Warning: No composition information available for thermochemistry variable CS2MO2O7_S1 (condensed, at grain boundary). Molar mass cannot be computed and will be returned as zero.
Warning: No composition information available for thermochemistry variable CS2MO2O7_S2 (condensed, at grain boundary). Molar mass cannot be computed and will be returned as zero.
Warning: No composition information available for thermochemistry variable CS2MO3O10 (condensed, at grain boundary). Molar mass cannot be computed and will be returned as zero.
Warning: No composition information available for thermochemistry variable CS2MO4O13 (condensed, at grain boundary). Molar mass cannot be computed and will be returned as zero.
Warning: No composition information available for thermochemistry variable CS2MO5O16 (condensed, at grain boundary). Molar mass cannot be computed and will be returned as zero.
Warning: No composition information available for thermochemistry variable CS2MO7O22 (condensed, at grain boundary). Molar mass cannot be computed and will be returned as zero.
Warning: No composition information available for thermochemistry variable CS2MOO4_S1 (condensed, at grain boundary). Molar mass cannot be computed and will be returned as zero.
Warning: No composition information available for thermochemistry variable CS2MOO4_S2 (condensed, at grain boundary). Molar mass cannot be computed and will be returned as zero.
Warning: No composition information available for thermochemistry variable CS2O1 (condensed, at grain boundary). Molar mass cannot be computed and will be returned as zero.
Warning: No composition information available for thermochemistry variable CS2O2 (condensed, at grain boundary). Molar mass cannot be computed and will be returned as zero.
Warning: No composition information available for thermochemistry variable CS3O (condensed, at grain boundary). Molar mass cannot be computed and will be returned as zero.
Warning: No composition information available for thermochemistry variable CS4O (condensed, at grain boundary). Molar mass cannot be computed and will be returned as zero.
Warning: No composition information available for thermochemistry variable CS7O1 (condensed, at grain boundary). Molar mass cannot be computed and will be returned as zero.
Warning: No composition information available for thermochemistry variable CS7O2 (condensed, at grain boundary). Molar mass cannot be computed and will be returned as zero.
Warning: No composition information available for thermochemistry variable CSO2 (condensed, at grain boundary). Molar mass cannot be computed and will be returned as zero.
Warning: No composition information available for thermochemistry variable CSO3 (condensed, at grain boundary). Molar mass cannot be computed and will be returned as zero.
Warning: No composition information available for thermochemistry variable DIAMOND_A4 (condensed, at grain boundary). Molar mass cannot be computed and will be returned as zero.
Warning: No composition information available for thermochemistry variable DIS_SIG (condensed, at grain boundary). Molar mass cannot be computed and will be returned as zero.
Warning: No composition information available for thermochemistry variable FCC_A1 (condensed, at grain boundary). Molar mass cannot be computed and will be returned as zero.
Warning: No composition information available for thermochemistry variable HCP_A3 (condensed, at grain boundary). Molar mass cannot be computed and will be returned as zero.
Warning: No composition information available for thermochemistry variable MC_ETA (condensed, at grain boundary). Molar mass cannot be computed and will be returned as zero.
Warning: No composition information available for thermochemistry variable MO4O11 (condensed, at grain boundary). Molar mass cannot be computed and will be returned as zero.
Warning: No composition information available for thermochemistry variable MO8O23 (condensed, at grain boundary). Molar mass cannot be computed and will be returned as zero.
Warning: No composition information available for thermochemistry variable MO9O26 (condensed, at grain boundary). Molar mass cannot be computed and will be returned as zero.
Warning: No composition information available for thermochemistry variable MOO2 (condensed, at grain boundary). Molar mass cannot be computed and will be returned as zero.
Warning: No composition information available for thermochemistry variable MOO3 (condensed, at grain boundary). Molar mass cannot be computed and will be returned as zero.
Warning: No composition information available for thermochemistry variable ORTHORHOMBIC_A20 (condensed, at grain boundary). Molar mass cannot be computed and will be returned as zero.
Warning: No composition information available for thermochemistry variable SIGMA (condensed, at grain boundary). Molar mass cannot be computed and will be returned as zero.
Warning: No composition information available for thermochemistry variable TETRAGONAL_U (condensed, at grain boundary). Molar mass cannot be computed and will be returned as zero.
Warning: No composition information available for thermochemistry variable UO3 (condensed, at grain boundary). Molar mass cannot be computed and will be returned as zero.
Warning: No composition information available for thermochemistry variable U4O9_S1 (condensed, at grain boundary). Molar mass cannot be computed and will be returned as zero.
Warning: No composition information available for thermochemistry variable U4O9_S2 (condensed, at grain boundary). Molar mass cannot be computed and will be returned as zero.
Warning: No composition information available for thermochemistry variable U4O9_S3 (condensed, at grain boundary). Molar mass cannot be computed and will be returned as zero.
Warning: No composition information available for thermochemistry variable U3O8_S1 (condensed, at grain boundary). Molar mass cannot be computed and will be returned as zero.
Warning: No composition information available for thermochemistry variable U3O8_S2 (condensed, at grain boundary). Molar mass cannot be computed and will be returned as zero.
Warning: No composition information available for thermochemistry variable U3O8_S3 (condensed, at grain boundary). Molar mass cannot be computed and will be returned as zero.
Warning: No composition information available for thermochemistry variable U3O8_S4 (condensed, at grain boundary). Molar mass cannot be computed and will be returned as zero.
