Use ./sciantix.x ../input_path/ in the working directory
OpenCalphad attempt for 'matrix' with WARM-START

[OC input] ./OCinput_matrix.OCM
----------------------------------------
@$ Initialize variables:
r t /home/ecappellari/transparant/opencalphad/data/O-Pu-UPaper o pu u

set ref o gas * 100000

set c t=1733
set c p=200000
set c n(o)=0.663866
set c n(pu)=0.0963509
set c n(u)=0.239784
c e
c w

save u ./OCoutput_matrix Y

l /out=./OCoutput_matrix.DAT r 1

fin
----------------------------------------

3A unfished preparations for XTDB


Open Calphad (OC) software version   6.106 , linked 2026-04-16
with command line monitor version  73

This program is available with a GNU General Public License.
either version 2 of the License, or any later version.
It includes the General Thermodynamic Package, version GTP-3.31,
Hillert's equilibrium calculation algorithm version HMS-3.0 ,
step/map/plot software version SMP-2.30 using GNUPLOT 5.2 graphics.
Numerical routines are extracted from LAPACK and BLAS and
the assessment procedure uses LMDIF from ANL.

Linked with OpenMp for parallel execution
 Warning, no environment variable OCHOME and no help file
 Working directory is: /home/ecappellari/transparant/sciantix-official/regression/test_JOG_MOX/point_04_r_1p2mm
--->OC6:--->OC6: 3E Database file extention is: ".tdb"

This database has information to users, please read carefully
Database modified by Pauline Fouquet-Metivier et al, Calphad (2022)
Only for the liquid phase of Pu-O and U-Pu-O systems

 ELEMENT /-   ELECTRON_GAS              0.0000E+00  0.0000E+00  0.0000E+00!

Database has  5 elements: O  PU U  AR N 
Give the elements to select, finish with empty line
Selected  3 elements: O  PU U 
Select elements /no more/:Selected  3 elements: O  PU U 
3E reading database file: /home/ecappellari/transparant/opencalphad/data/O-Pu-UPaper.TDB
 3B insering interaction before existing F

Out of   115 model parameters   108 have been entered


There are    17 bibliographic references
REF161          '*** Not set by database or user'
REF178          '*** Not set by database or user'
REF175          '*** Not set by database or user'
REF176          '*** Not set by database or user'
REF177          '*** Not set by database or user'
REF203          'O1PU1<G> T.C.R.A.S. Class: 6, from SSUB, id to Tbase'
REF204          'O2PU1<G> T.C.R.A.S. Class: 7 PLUTONIUM DIOXIDE <GAS>, from 
                 SSUB, id to Tbase'
REF209          'O1U1<G> T.C.R.A.S Class: 6 Data provided by T.C.R.A.S. in 
                 2000, from SSUB, different of Tbase'
REF210          'O2U1<G> T.C.R.A.S. Class: 6 URANIUM DIOXIDE <GAS>, from 
                 SSUB, slightly different of Tbase'
REF211          'O3U1<G> T.C.R.A.S Class: 6 Data provided by T.C.R.A.S. in 
                 2000, from SSUB, different of Tbase'
REF10           'A T Dinsdale, SGTE Data for Pure Elements, Calphad 15(1991)4 
                 p 317-425; also in NPL Report DMA(A)195 Rev. August 1990'
FOUQ            'P. Fouquet-Metivier et al, Calphad (2022)'
REF412          'C. Gueneau, N. Dupin, B. Sundman, C. Martial, J.-C. Dumas, 
                 S. Gosse, S. Chatain, F. De Bruycker, D. Manara, R.J.M. 
                 Konings, J. Nucl. Mat. 419 (1-3), 145-167 (2011); C-O-Pu-U'
REF37           'M. Kurata, Calphad, 23 (3-4), 305-337 1999'
REF115          '*** Not set by database or user'
REF92           'N. Dupin, Contrat CEA 4000294936/P5B73 Np-Pu Fuelbase, 
                 february REF115'
REF137          '*** Not set by database or user'

--->OC6:--->OC6:--->OC6:--->OC6:--->OC6:--->OC6:--->OC6:--->OC6:3Y Removed  1 gridpoints by merging
 3Y Composition set(s) created:            1
Gridmin:    7483 points   1.98E-02 s and      17 clockcycles, T= 1733.00
 3Y leaving global_gridmin
Phase change iteration:     4  -C1_MO2_AUTO#2
Equilibrium result:  19 its,  2.1337E-02 s,     22 cc, GS= -4.5029853E+05 J/mol
--->OC6:Equilibrium result:  11 its,  7.4900E-04 s,      0 cc, GS= -4.5029853E+05 J/mol
3Y Testing if any gridpoint is below the calculated equilibrium
--->OC6:--->OC6:3E allocating workspace:     122160          (   2160,   10000,    2)
 3E saving            3  symbols as texts
 3E used        12117  words out of       122160  for storing static data
 ceqrecsize not implemented          26
 3E Saving an equilibrium record requires     2854       0 words
 3E not storing unused equilibria from:            2
 3E Saving assessment record
 3E No experimental equilibrium range set
 3E allocating assessment head record          48
 3E no coefficients allocated
 3E no work array (assrec%wopt) allocated
Used    15059 words out of   122160,  12.33% for unformatted memory save
Written workspace      60236 bytes unformatted on ./OCoutput_matrix.OCU
--->OC6:--->OC6:Output on file: ./OCoutput_matrix.DAT
Output unit reset to screen:    6
--->OC6:--->OC6:
[OC output] ./OCoutput_matrix.DAT
----------------------------------------

%%%%%%%%%% OC output written: 2026-04-19  21h33

Output for equilibrium:   1, DEFAULT_EQUILIBRIUM          2026.04.19
Conditions .................................................:
  1:T=1733, 2:P=200000, 3:N(O)=0.663866, 4:N(PU)=.0963509, 5:N(U)=0.239784
 Degrees of freedom are   0

Some global data, reference state SER ......................:
T=   1733.00 K (  1459.85 C), P=  2.0000E+05 Pa, V=  0.0000E+00 m3
N=   1.0000E+00 moles, B=   9.1212E+01 g, RT=   1.4409E+04 J/mol
G= -4.50299E+05 J, G/N=-4.5030E+05 J/mol, H=-3.1908E+05 J, S= 7.572E+01 J/K

Some data for components ...................................:
Component name    Moles      Mole-fr  Chem.pot/RT  Activities  Ref.state
O                 6.6387E-01  0.66387 -1.5777E+01  1.4062E-07  GAS             
PU                9.6351E-02  0.09635 -3.4441E+01  1.1024E-15  SER (default)   
U                 2.3978E-01  0.23978 -3.4643E+01  9.0064E-16  SER (default)   

Some data for phases .......................................:
Name                Status Moles      Volume    Form.Units Cmp/FU dGm/RT  Comp:
C1_MO2#1................ E  1.000E+00  0.00E+00  3.36E-01    2.97  0.00E+00  X:
 O      6.63865E-01  U      2.39784E-01  PU     9.63508E-02


----------------------------------------

[OC parser] Parsed components
  O : moles=0.66387, x=0.66387, mu/RT=-15.777, activity=1.4062e-07, ref=GAS
  Pu : moles=0.096351, x=0.09635, mu/RT=-34.441, activity=1.1024e-15, ref=SER (default)
  U : moles=0.23978, x=0.23978, mu/RT=-34.643, activity=9.0064e-16, ref=SER (default)

[OC parser] Parsed phases
  Phase condensed : moles=1, volume=0
    Elements
      O = 0.663865
      Pu = 0.0963508
      U = 0.239784
    Species
      C1_MO2 : moles=1, volume=0
        O = 0.663865
        Pu = 0.0963508
        U = 0.239784
OpenCalphad attempt for 'matrix' with WARM-START

[OC input] ./OCinput_matrix.OCM
----------------------------------------
r u ./OCoutput_matrix.OCU

set ref o gas * 100000

set c t=1733
set c p=268000
set c n(o)=0.664146
set c n(pu)=0.0959685
set c n(u)=0.239885
c e
c w

save u ./OCoutput_matrix Y

l /out=./OCoutput_matrix.DAT r 1

fin
----------------------------------------

3A unfished preparations for XTDB


Open Calphad (OC) software version   6.106 , linked 2026-04-16
with command line monitor version  73

This program is available with a GNU General Public License.
either version 2 of the License, or any later version.
It includes the General Thermodynamic Package, version GTP-3.31,
Hillert's equilibrium calculation algorithm version HMS-3.0 ,
step/map/plot software version SMP-2.30 using GNUPLOT 5.2 graphics.
Numerical routines are extracted from LAPACK and BLAS and
the assessment procedure uses LMDIF from ANL.

Linked with OpenMp for parallel execution
 Warning, no environment variable OCHOME and no help file
 Working directory is: /home/ecappellari/transparant/sciantix-official/regression/test_JOG_MOX/point_04_r_1p2mm
--->OC6:
Read unformatted file: This is a save file for OC version:     OCF-3.20
Generated:  2026.04.19 21h33

 3E reading unformatted:        15024           0           0
3E Addition type   1, Inden-Hillert magn model for BCC_A2
3E Addition type   1, Inden-Hillert magn model for FCC_A1
 3E no experimental data
 3E no coefficient values saved
 3E Read assessment record
 No coefficients allocated
--->OC6:--->OC6:--->OC6:--->OC6:--->OC6:--->OC6:--->OC6:--->OC6:--->OC6:3Y Removed  1 gridpoints by merging
Gridmin:    7483 points   1.86E-02 s and      16 clockcycles, T= 1733.00
 3Y leaving global_gridmin
Phase change iteration:     4  -C1_MO2_AUTO#2
Equilibrium result:  19 its,  2.0497E-02 s,     21 cc, GS= -4.5027743E+05 J/mol
--->OC6:MM ignoring phase: C1_MO2_AUTO#2   7  25 with charge:  1.4092E-01
MM ignoring phase: C1_MO2_AUTO#2   7  25 with charge:  9.7825E-02
MM ignoring phase: C1_MO2_AUTO#2   7  25 with charge:  7.6338E-02
MM ignoring phase: C1_MO2_AUTO#2   7  25 with charge:  5.8799E-02
MM ignoring phase: C1_MO2_AUTO#2   7  25 with charge:  4.4826E-02
MM Removing phase:    7   6#2
MM Restoring phase:      7   25  C1_MO2_AUTO#2       3.2727E-02
 MM warning, a restored phase wants to be stable:           7

Error codes:   4363     0    50
Message: No equilibrium, a restored phase should be stable

--->OC6:--->OC6:
Overwriting previous results on ./OCoutput_matrix.OCU
3E allocating workspace:     122160          (   2160,   10000,    2)
 3E saving            3  symbols as texts
 3E used        12117  words out of       122160  for storing static data
 ceqrecsize not implemented          26
 3E Saving an equilibrium record requires     2854       0 words
 3E not storing unused equilibria from:            2
 3E Saving assessment record
 3E No experimental equilibrium range set
 3E allocating assessment head record          48
 3E no coefficients allocated
 3E no work array (assrec%wopt) allocated
Used    15059 words out of   122160,  12.33% for unformatted memory save
Written workspace      60236 bytes unformatted on ./OCoutput_matrix.OCU
--->OC6:--->OC6:Output on file: ./OCoutput_matrix.DAT

Output unit reset to screen:    6
--->OC6:--->OC6:
[OC output] ./OCoutput_matrix.DAT
----------------------------------------

%%%%%%%%%% OC output written: 2026-04-19  21h33

Output for equilibrium:   1, DEFAULT_EQUILIBRIUM          2026.04.19

 *** The results below are not a valid equilibrium as last calculation failed

Conditions .................................................:
  1:T=1733, 2:P=268000, 3:N(O)=0.664146, 4:N(PU)=.0959685, 5:N(U)=0.239885
 Degrees of freedom are   0

Some global data, reference state SER ......................:
T=   1733.00 K (  1459.85 C), P=  2.6800E+05 Pa, V=  0.0000E+00 m3
N=   1.0000E+00 moles, B=   9.1148E+01 g, RT=   1.4409E+04 J/mol
G= -4.50277E+05 J, G/N=-4.5028E+05 J/mol, H=-3.1916E+05 J, S= 7.566E+01 J/K

Some data for components ...................................:
Component name    Moles      Mole-fr  Chem.pot/RT  Activities  Ref.state
O                 6.6415E-01  0.66415 -1.5749E+01  1.4463E-07  GAS             
PU                9.5969E-02  0.09597 -3.4778E+01  7.8751E-16  SER (default)   
U                 2.3988E-01  0.23989 -3.4991E+01  6.3591E-16  SER (default)   

Some data for phases .......................................:
Name                Status Moles      Volume    Form.Units Cmp/FU dGm/RT  Comp:
C1_MO2#1................ E  1.000E+00  0.00E+00  3.36E-01    2.98  0.00E+00  X:
 O      6.64146E-01  U      2.39885E-01  PU     9.59685E-02

C1_MO2_AUTO#2........... E  0.000E+00  0.00E+00  0.00E+00    2.96  1.11E-02  X:
 O      6.61909E-01  U      2.26281E-01  PU     1.11809E-01


 *** There are phase(s) which would like to be stable:
   C1_MO2  1.1065E-02
 *** The results above are not a valid equilibrium as last calculation failed


----------------------------------------
Warning: OpenCalphad returned a stoichiometric C1_MO2 stabilization failure for location 'matrix' using WARM-START. Deferring acceptance until all solve attempts are exhausted.
Warning: OpenCalphad returned an invalid equilibrium for location 'matrix' using WARM-START.
OpenCalphad attempt for 'matrix' with COLD-START

[OC input] ./OCinput_matrix.OCM
----------------------------------------
@$ Initialize variables:
r t /home/ecappellari/transparant/opencalphad/data/O-Pu-UPaper o pu u

set ref o gas * 100000

set c t=1733
set c p=268000
set c n(o)=0.664146
set c n(pu)=0.0959685
set c n(u)=0.239885
c e
c e
c w
l /out=./OCoutput_matrix.DAT r 1

fin
----------------------------------------

3A unfished preparations for XTDB


Open Calphad (OC) software version   6.106 , linked 2026-04-16
with command line monitor version  73

This program is available with a GNU General Public License.
either version 2 of the License, or any later version.
It includes the General Thermodynamic Package, version GTP-3.31,
Hillert's equilibrium calculation algorithm version HMS-3.0 ,
step/map/plot software version SMP-2.30 using GNUPLOT 5.2 graphics.
Numerical routines are extracted from LAPACK and BLAS and
the assessment procedure uses LMDIF from ANL.

Linked with OpenMp for parallel execution
 Warning, no environment variable OCHOME and no help file
 Working directory is: /home/ecappellari/transparant/sciantix-official/regression/test_JOG_MOX/point_04_r_1p2mm
--->OC6:--->OC6: 3E Database file extention is: ".tdb"

This database has information to users, please read carefully
Database modified by Pauline Fouquet-Metivier et al, Calphad (2022)
Only for the liquid phase of Pu-O and U-Pu-O systems

 ELEMENT /-   ELECTRON_GAS              0.0000E+00  0.0000E+00  0.0000E+00!

Database has  5 elements: O  PU U  AR N 
Give the elements to select, finish with empty line
Selected  3 elements: O  PU U 
Select elements /no more/:Selected  3 elements: O  PU U 
3E reading database file: /home/ecappellari/transparant/opencalphad/data/O-Pu-UPaper.TDB
 3B insering interaction before existing F

Out of   115 model parameters   108 have been entered


There are    17 bibliographic references
REF161          '*** Not set by database or user'
REF178          '*** Not set by database or user'
REF175          '*** Not set by database or user'
REF176          '*** Not set by database or user'
REF177          '*** Not set by database or user'
REF203          'O1PU1<G> T.C.R.A.S. Class: 6, from SSUB, id to Tbase'
REF204          'O2PU1<G> T.C.R.A.S. Class: 7 PLUTONIUM DIOXIDE <GAS>, from 
                 SSUB, id to Tbase'
REF209          'O1U1<G> T.C.R.A.S Class: 6 Data provided by T.C.R.A.S. in 
                 2000, from SSUB, different of Tbase'
REF210          'O2U1<G> T.C.R.A.S. Class: 6 URANIUM DIOXIDE <GAS>, from 
                 SSUB, slightly different of Tbase'
REF211          'O3U1<G> T.C.R.A.S Class: 6 Data provided by T.C.R.A.S. in 
                 2000, from SSUB, different of Tbase'
REF10           'A T Dinsdale, SGTE Data for Pure Elements, Calphad 15(1991)4 
                 p 317-425; also in NPL Report DMA(A)195 Rev. August 1990'
FOUQ            'P. Fouquet-Metivier et al, Calphad (2022)'
REF412          'C. Gueneau, N. Dupin, B. Sundman, C. Martial, J.-C. Dumas, 
                 S. Gosse, S. Chatain, F. De Bruycker, D. Manara, R.J.M. 
                 Konings, J. Nucl. Mat. 419 (1-3), 145-167 (2011); C-O-Pu-U'
REF37           'M. Kurata, Calphad, 23 (3-4), 305-337 1999'
REF115          '*** Not set by database or user'
REF92           'N. Dupin, Contrat CEA 4000294936/P5B73 Np-Pu Fuelbase, 
                 february REF115'
REF137          '*** Not set by database or user'

--->OC6:--->OC6:--->OC6:--->OC6:--->OC6:--->OC6:--->OC6:--->OC6:3Y Removed  1 gridpoints by merging
 3Y Composition set(s) created:            1
Gridmin:    7483 points   1.63E-02 s and      14 clockcycles, T= 1733.00
 3Y leaving global_gridmin
Phase change iteration:     4  -C1_MO2_AUTO#2
Equilibrium result:  19 its,  1.7705E-02 s,     18 cc, GS= -4.5027743E+05 J/mol
--->OC6:3Y Removed  1 gridpoints by merging
Gridmin:    7483 points   1.74E-02 s and      16 clockcycles, T= 1733.00
 3Y leaving global_gridmin
Phase change iteration:     4  -C1_MO2_AUTO#2
Equilibrium result:  19 its,  1.9293E-02 s,     19 cc, GS= -4.5027743E+05 J/mol
--->OC6:MM ignoring phase: C1_MO2_AUTO#2   7  25 with charge:  1.1221E-01
MM ignoring phase: C1_MO2_AUTO#2   7  25 with charge:  8.3222E-02
MM ignoring phase: C1_MO2_AUTO#2   7  25 with charge:  6.4309E-02
MM ignoring phase: C1_MO2_AUTO#2   7  25 with charge:  4.9154E-02
MM ignoring phase: C1_MO2_AUTO#2   7  25 with charge:  3.7290E-02
MM Removing phase:    7   6#2
MM Restoring phase:      7   25  C1_MO2_AUTO#2       2.6618E-02
 MM warning, a restored phase wants to be stable:           7

Error codes:   4363     0    50
Message: No equilibrium, a restored phase should be stable

--->OC6:Output on file: ./OCoutput_matrix.DAT

Output unit reset to screen:    6
--->OC6:--->OC6:
[OC output] ./OCoutput_matrix.DAT
----------------------------------------

%%%%%%%%%% OC output written: 2026-04-19  21h33

Output for equilibrium:   1, DEFAULT_EQUILIBRIUM          2026.04.19

 *** The results below are not a valid equilibrium as last calculation failed

Conditions .................................................:
  1:T=1733, 2:P=268000, 3:N(O)=0.664146, 4:N(PU)=.0959685, 5:N(U)=0.239885
 Degrees of freedom are   0

Some global data, reference state SER ......................:
T=   1733.00 K (  1459.85 C), P=  2.6800E+05 Pa, V=  0.0000E+00 m3
N=   1.0000E+00 moles, B=   9.1148E+01 g, RT=   1.4409E+04 J/mol
G= -4.50277E+05 J, G/N=-4.5028E+05 J/mol, H=-3.1916E+05 J, S= 7.566E+01 J/K

Some data for components ...................................:
Component name    Moles      Mole-fr  Chem.pot/RT  Activities  Ref.state
O                 6.6415E-01  0.66415 -1.5749E+01  1.4463E-07  GAS             
PU                9.5969E-02  0.09597 -3.4778E+01  7.8751E-16  SER (default)   
U                 2.3988E-01  0.23989 -3.4991E+01  6.3591E-16  SER (default)   

Some data for phases .......................................:
Name                Status Moles      Volume    Form.Units Cmp/FU dGm/RT  Comp:
C1_MO2#1................ E  1.000E+00  0.00E+00  3.36E-01    2.98  0.00E+00  X:
 O      6.64146E-01  U      2.39885E-01  PU     9.59685E-02

C1_MO2_AUTO#2........... E  0.000E+00  0.00E+00  0.00E+00    2.96  8.99E-03  X:
 O      6.62163E-01  U      2.28845E-01  PU     1.08993E-01


 *** There are phase(s) which would like to be stable:
   C1_MO2  8.9926E-03
 *** The results above are not a valid equilibrium as last calculation failed


----------------------------------------
Warning: OpenCalphad returned a stoichiometric C1_MO2 stabilization failure for location 'matrix' using COLD-START. Deferring acceptance until all solve attempts are exhausted.
Warning: OpenCalphad returned an invalid equilibrium for location 'matrix' using COLD-START.
OpenCalphad attempt for 'matrix' with PRESSURE-SWEEP

[OC input] ./OCinput_matrix.OCM
----------------------------------------
@$ Initialize variables:
r t /home/ecappellari/transparant/opencalphad/data/O-Pu-UPaper o pu u

set ref o gas * 100000

set c t=1733
set c p=268000
set c n(o)=0.664146
set c n(pu)=0.0959685
set c n(u)=0.239885
c e
set c p=100000
c w
set axis
1
p
100000
268000


step
normal

set c p=268000
c e
c w
l /out=./OCoutput_matrix.DAT r 1

fin
----------------------------------------

3A unfished preparations for XTDB


Open Calphad (OC) software version   6.106 , linked 2026-04-16
with command line monitor version  73

This program is available with a GNU General Public License.
either version 2 of the License, or any later version.
It includes the General Thermodynamic Package, version GTP-3.31,
Hillert's equilibrium calculation algorithm version HMS-3.0 ,
step/map/plot software version SMP-2.30 using GNUPLOT 5.2 graphics.
Numerical routines are extracted from LAPACK and BLAS and
the assessment procedure uses LMDIF from ANL.

Linked with OpenMp for parallel execution
 Warning, no environment variable OCHOME and no help file
 Working directory is: /home/ecappellari/transparant/sciantix-official/regression/test_JOG_MOX/point_04_r_1p2mm
--->OC6:--->OC6: 3E Database file extention is: ".tdb"

This database has information to users, please read carefully
Database modified by Pauline Fouquet-Metivier et al, Calphad (2022)
Only for the liquid phase of Pu-O and U-Pu-O systems

 ELEMENT /-   ELECTRON_GAS              0.0000E+00  0.0000E+00  0.0000E+00!

Database has  5 elements: O  PU U  AR N 
Give the elements to select, finish with empty line
Selected  3 elements: O  PU U 
Select elements /no more/:Selected  3 elements: O  PU U 
3E reading database file: /home/ecappellari/transparant/opencalphad/data/O-Pu-UPaper.TDB
 3B insering interaction before existing F

Out of   115 model parameters   108 have been entered


There are    17 bibliographic references
REF161          '*** Not set by database or user'
REF178          '*** Not set by database or user'
REF175          '*** Not set by database or user'
REF176          '*** Not set by database or user'
REF177          '*** Not set by database or user'
REF203          'O1PU1<G> T.C.R.A.S. Class: 6, from SSUB, id to Tbase'
REF204          'O2PU1<G> T.C.R.A.S. Class: 7 PLUTONIUM DIOXIDE <GAS>, from 
                 SSUB, id to Tbase'
REF209          'O1U1<G> T.C.R.A.S Class: 6 Data provided by T.C.R.A.S. in 
                 2000, from SSUB, different of Tbase'
REF210          'O2U1<G> T.C.R.A.S. Class: 6 URANIUM DIOXIDE <GAS>, from 
                 SSUB, slightly different of Tbase'
REF211          'O3U1<G> T.C.R.A.S Class: 6 Data provided by T.C.R.A.S. in 
                 2000, from SSUB, different of Tbase'
REF10           'A T Dinsdale, SGTE Data for Pure Elements, Calphad 15(1991)4 
                 p 317-425; also in NPL Report DMA(A)195 Rev. August 1990'
FOUQ            'P. Fouquet-Metivier et al, Calphad (2022)'
REF412          'C. Gueneau, N. Dupin, B. Sundman, C. Martial, J.-C. Dumas, 
                 S. Gosse, S. Chatain, F. De Bruycker, D. Manara, R.J.M. 
                 Konings, J. Nucl. Mat. 419 (1-3), 145-167 (2011); C-O-Pu-U'
REF37           'M. Kurata, Calphad, 23 (3-4), 305-337 1999'
REF115          '*** Not set by database or user'
REF92           'N. Dupin, Contrat CEA 4000294936/P5B73 Np-Pu Fuelbase, 
                 february REF115'
REF137          '*** Not set by database or user'

--->OC6:--->OC6:--->OC6:--->OC6:--->OC6:--->OC6:--->OC6:--->OC6:3Y Removed  1 gridpoints by merging
 3Y Composition set(s) created:            1
Gridmin:    7483 points   2.15E-02 s and      19 clockcycles, T= 1733.00
 3Y leaving global_gridmin
Phase change iteration:     4  -C1_MO2_AUTO#2
Equilibrium result:  19 its,  2.2963E-02 s,     23 cc, GS= -4.5027743E+05 J/mol
--->OC6:--->OC6:MM ignoring phase: C1_MO2_AUTO#2   7  25 with charge:  1.1221E-01
MM ignoring phase: C1_MO2_AUTO#2   7  25 with charge:  8.3222E-02
MM ignoring phase: C1_MO2_AUTO#2   7  25 with charge:  6.4309E-02
MM ignoring phase: C1_MO2_AUTO#2   7  25 with charge:  4.9154E-02
MM ignoring phase: C1_MO2_AUTO#2   7  25 with charge:  3.7290E-02
MM Removing phase:    7   6#2
MM Restoring phase:      7   25  C1_MO2_AUTO#2       2.6618E-02
 MM warning, a restored phase wants to be stable:           7

Error codes:   4363     0    50
Message: No equilibrium, a restored phase should be stable

--->OC6:Axis number /1/: Condition varying along axis:Minimal value /0/: Maximal value /1/: Increment /4200/: --->OC6:--->OC6:Step options? /NORMAL/:  There are            1  start equilibria
 Entering map_startpoint           1
 SMP2A call map_doallines

Line   1 from   1.000000E+05 with: C1_MO2#1  
Equilibria calculated     20
SMP2A problem calculating node:  4223    0    4 at T= 1733.00
Terminating line with   34 equilibria at   2.1760E+05 due to error 4368
Finishing line with    34 equilibria at T= 1733.00, xaxis:  2.1760E+05 

Line   2 from   1.000000E+05 with: C1_MO2#1  
Terminating line with    2 equilibria at axis limit   1.0000E+05

Finished step/map with    36 equilibria in   4.9033E-02 CPU s and      50 cc
--->OC6:--->OC6:--->OC6:3Y Removed  1 gridpoints by merging
Gridmin:    7483 points   1.81E-02 s and      15 clockcycles, T= 1733.00
 3Y leaving global_gridmin
Phase change iteration:     4  -C1_MO2_AUTO#2
Equilibrium result:  19 its,  1.9773E-02 s,     20 cc, GS= -4.5027743E+05 J/mol
--->OC6:Equilibrium result:   9 its,  6.2400E-04 s,      1 cc, GS= -4.5027743E+05 J/mol
3Y Testing if any gridpoint is below the calculated equilibrium
--->OC6:Output on file: ./OCoutput_matrix.DAT
Output unit reset to screen:    6
--->OC6:--->OC6:
[OC output] ./OCoutput_matrix.DAT
----------------------------------------

%%%%%%%%%% OC output written: 2026-04-19  21h33

Output for equilibrium:   1, DEFAULT_EQUILIBRIUM          2026.04.19
Conditions .................................................:
  1:T=1733, 2:P=268000, 3:N(O)=0.664146, 4:N(PU)=.0959685, 5:N(U)=0.239885
 Degrees of freedom are   0

Some global data, reference state SER ......................:
T=   1733.00 K (  1459.85 C), P=  2.6800E+05 Pa, V=  0.0000E+00 m3
N=   1.0000E+00 moles, B=   9.1148E+01 g, RT=   1.4409E+04 J/mol
G= -4.50277E+05 J, G/N=-4.5028E+05 J/mol, H=-3.1916E+05 J, S= 7.566E+01 J/K

Some data for components ...................................:
Component name    Moles      Mole-fr  Chem.pot/RT  Activities  Ref.state
O                 6.6415E-01  0.66415 -1.5749E+01  1.4463E-07  GAS             
PU                9.5968E-02  0.09597 -3.4778E+01  7.8751E-16  SER (default)   
U                 2.3989E-01  0.23989 -3.4991E+01  6.3591E-16  SER (default)   

Some data for phases .......................................:
Name                Status Moles      Volume    Form.Units Cmp/FU dGm/RT  Comp:
C1_MO2#1................ E  1.000E+00  0.00E+00  3.36E-01    2.98  0.00E+00  X:
 O      6.64146E-01  U      2.39885E-01  PU     9.59685E-02


----------------------------------------

[OC parser] Parsed components
  O : moles=0.66415, x=0.66415, mu/RT=-15.749, activity=1.4463e-07, ref=GAS
  Pu : moles=0.095968, x=0.09597, mu/RT=-34.778, activity=7.8751e-16, ref=SER (default)
  U : moles=0.23989, x=0.23989, mu/RT=-34.991, activity=6.3591e-16, ref=SER (default)

[OC parser] Parsed phases
  Phase condensed : moles=1, volume=0
    Elements
      O = 0.664146
      Pu = 0.0959685
      U = 0.239885
    Species
      C1_MO2 : moles=1, volume=0
        O = 0.664146
        Pu = 0.0959685
        U = 0.239885
OpenCalphad attempt for 'matrix' with WARM-START

[OC input] ./OCinput_matrix.OCM
----------------------------------------
r u ./OCoutput_matrix.OCU

set ref o gas * 100000

set c t=1733
set c p=336000
set c n(o)=0.664428
set c n(pu)=0.0955858
set c n(u)=0.239987
c e
c w

save u ./OCoutput_matrix Y

l /out=./OCoutput_matrix.DAT r 1

fin
----------------------------------------

3A unfished preparations for XTDB


Open Calphad (OC) software version   6.106 , linked 2026-04-16
with command line monitor version  73

This program is available with a GNU General Public License.
either version 2 of the License, or any later version.
It includes the General Thermodynamic Package, version GTP-3.31,
Hillert's equilibrium calculation algorithm version HMS-3.0 ,
step/map/plot software version SMP-2.30 using GNUPLOT 5.2 graphics.
Numerical routines are extracted from LAPACK and BLAS and
the assessment procedure uses LMDIF from ANL.

Linked with OpenMp for parallel execution
 Warning, no environment variable OCHOME and no help file
 Working directory is: /home/ecappellari/transparant/sciantix-official/regression/test_JOG_MOX/point_04_r_1p2mm
--->OC6:
Read unformatted file: This is a save file for OC version:     OCF-3.20
Generated:  2026.04.19 21h33

 3E reading unformatted:        15024           0           0
3E Addition type   1, Inden-Hillert magn model for BCC_A2
3E Addition type   1, Inden-Hillert magn model for FCC_A1
 3E no experimental data
 3E no coefficient values saved
 3E Read assessment record
 No coefficients allocated
--->OC6:--->OC6:--->OC6:--->OC6:--->OC6:--->OC6:--->OC6:--->OC6:--->OC6:3Y Removed  1 gridpoints by merging
Gridmin:    7483 points   1.68E-02 s and      14 clockcycles, T= 1733.00
 3Y leaving global_gridmin
Phase change iteration:     4  -C1_MO2_AUTO#2
Equilibrium result:  17 its,  1.8258E-02 s,     19 cc, GS= -4.5025541E+05 J/mol
--->OC6:Equilibrium result:   9 its,  6.6200E-04 s,      1 cc, GS= -4.5025541E+05 J/mol
3Y Testing if any gridpoint is below the calculated equilibrium
--->OC6:--->OC6:
Overwriting previous results on ./OCoutput_matrix.OCU
3E allocating workspace:     122160          (   2160,   10000,    2)
 3E saving            3  symbols as texts
 3E used        12117  words out of       122160  for storing static data
 ceqrecsize not implemented          26
 3E Saving an equilibrium record requires     2854       0 words
 3E not storing unused equilibria from:            2
 3E Saving assessment record
 3E No experimental equilibrium range set
 3E allocating assessment head record          48
 3E no coefficients allocated
 3E no work array (assrec%wopt) allocated
Used    15059 words out of   122160,  12.33% for unformatted memory save
Written workspace      60236 bytes unformatted on ./OCoutput_matrix.OCU
--->OC6:--->OC6:Output on file: ./OCoutput_matrix.DAT
Output unit reset to screen:    6
--->OC6:--->OC6:
[OC output] ./OCoutput_matrix.DAT
----------------------------------------

%%%%%%%%%% OC output written: 2026-04-19  21h33

Output for equilibrium:   1, DEFAULT_EQUILIBRIUM          2026.04.19
Conditions .................................................:
  1:T=1733, 2:P=336000, 3:N(O)=0.664428, 4:N(PU)=.0955858, 5:N(U)=0.239987
 Degrees of freedom are   0

Some global data, reference state SER ......................:
T=   1733.00 K (  1459.85 C), P=  3.3600E+05 Pa, V=  0.0000E+00 m3
N=   1.0000E+00 moles, B=   9.1083E+01 g, RT=   1.4409E+04 J/mol
G= -4.50255E+05 J, G/N=-4.5026E+05 J/mol, H=-3.1925E+05 J, S= 7.560E+01 J/K

Some data for components ...................................:
Component name    Moles      Mole-fr  Chem.pot/RT  Activities  Ref.state
O                 6.6443E-01  0.66443 -1.5675E+01  1.5581E-07  GAS             
PU                9.5586E-02  0.09559 -3.5140E+01  5.4808E-16  SER (default)   
U                 2.3999E-01  0.23999 -3.5366E+01  4.3727E-16  SER (default)   

Some data for phases .......................................:
Name                Status Moles      Volume    Form.Units Cmp/FU dGm/RT  Comp:
C1_MO2#1................ E  1.000E+00  0.00E+00  3.36E-01    2.98  0.00E+00  X:
 O      6.64427E-01  U      2.39987E-01  PU     9.55857E-02


----------------------------------------

[OC parser] Parsed components
  O : moles=0.66443, x=0.66443, mu/RT=-15.675, activity=1.5581e-07, ref=GAS
  Pu : moles=0.095586, x=0.09559, mu/RT=-35.14, activity=5.4808e-16, ref=SER (default)
  U : moles=0.23999, x=0.23999, mu/RT=-35.366, activity=4.3727e-16, ref=SER (default)

[OC parser] Parsed phases
  Phase condensed : moles=1, volume=0
    Elements
      O = 0.664427
      Pu = 0.0955857
      U = 0.239987
    Species
      C1_MO2 : moles=1, volume=0
        O = 0.664427
        Pu = 0.0955857
        U = 0.239987
OpenCalphad attempt for 'at grain boundary' with WARM-START

[OC input] ./OCinput_fission_products.OCM
----------------------------------------
@$ Initialize variables:
r t /home/ecappellari/transparant/opencalphad/data/CsMoO_TAFID_2021_Anna cs mo o

set ref o gas * 100000

set c t=1733
set c p=336000
set c n(cs)=5.74018e-05
set c n(mo)=0.000117611
set c n(o)=0.999825
c e
set c n(o)=none
set c mu(o)=-451712

c w

save u ./OCoutput_fission_products Y

l /out=./OCoutput_fission_products.DAT r 1

fin
----------------------------------------

3A unfished preparations for XTDB


Open Calphad (OC) software version   6.106 , linked 2026-04-16
with command line monitor version  73

This program is available with a GNU General Public License.
either version 2 of the License, or any later version.
It includes the General Thermodynamic Package, version GTP-3.31,
Hillert's equilibrium calculation algorithm version HMS-3.0 ,
step/map/plot software version SMP-2.30 using GNUPLOT 5.2 graphics.
Numerical routines are extracted from LAPACK and BLAS and
the assessment procedure uses LMDIF from ANL.

Linked with OpenMp for parallel execution
 Warning, no environment variable OCHOME and no help file
 Working directory is: /home/ecappellari/transparant/sciantix-official/regression/test_JOG_MOX/point_04_r_1p2mm
--->OC6:--->OC6: 3E Database file extention is: ".tdb"
Database has  3 elements: CS MO O 
Give the elements to select, finish with empty line
Selected  3 elements: CS MO O 
Select elements /no more/:Selected  3 elements: CS MO O 
3E reading database file: /home/ecappellari/transparant/opencalphad/data/CsMoO_TAFID_2021_Anna.TDB

Out of    82 model parameters    82 have been entered


There are     1 bibliographic references
REF0            '*** Not set by database or user'

--->OC6:--->OC6:--->OC6:--->OC6:--->OC6:--->OC6:--->OC6:--->OC6: 3Y Composition set(s) created:            1
Gridmin:    9683 points   2.60E-02 s and      26 clockcycles, T= 1733.00
 3Y leaving global_gridmin
Phase change iteration:     4  -LIQUID_AUTO#2
Phase change iteration:     5  +LIQUID_AUTO#2
Phase change iteration:    10  -LIQUID_AUTO#2
Phase change iteration:    17  -LIQUID#1
Equilibrium result:  37 its,  2.8775E-02 s,     29 cc, GS= -1.9495658E+05 J/mol
--->OC6:--->OC6:--->OC6:--->OC6:Phase change iteration:     4  +HCP_A3
Equilibrium result:  23 its,  4.3060E-03 s,      5 cc, GS= -2.3554936E+01 J/mol
3Y Testing if any gridpoint is below the calculated equilibrium
 3Y Equilibrium wrong, gridtest found BCC_A2                  
 3Y recalculate with:           39           2          40
 MM recalculating with this phase as stable 2:           39
MM Calculate with activity condition
Phase change iteration:     4  -BCC_A2_CHKD#2
Phase change iteration:     5  +BCC_A2_CHKD#2
Phase change iteration:     8  +BCC_A2_CHKD#2
Phase change iteration:     9  +BCC_A2_CHKD#2
Phase change iteration:    10  +BCC_A2_CHKD#2
MM Too many stable phases at iter  10, phase  27 replaced by   5, T=  1733.00
Equilibrium result:  21 its,  3.0154E-02 s,     31 cc, GS= -2.4861598E+01 J/mol
3Y Testing if any gridpoint is below the calculated equilibrium
--->OC6:--->OC6:3E allocating workspace:     123330          (   3330,   10000,    2)
 3E saving            3  symbols as texts
 3E used        12291  words out of       123330  for storing static data
 ceqrecsize not implemented          40
 3E Saving an equilibrium record requires     4302       0 words
 3E not storing unused equilibria from:            2
 3E Saving assessment record
 3E No experimental equilibrium range set
 3E allocating assessment head record          48
 3E no coefficients allocated
 3E no work array (assrec%wopt) allocated
Used    16681 words out of   123330,  13.53% for unformatted memory save
Written workspace      66724 bytes unformatted on ./OCoutput_fission_products.OCU
--->OC6:--->OC6:Output on file: ./OCoutput_fission_products.DAT
Output unit reset to screen:    6
--->OC6:--->OC6:
[OC output] ./OCoutput_fission_products.DAT
----------------------------------------

%%%%%%%%%% OC output written: 2026-04-19  21h33

Output for equilibrium:   1, DEFAULT_EQUILIBRIUM          2026.04.19
Conditions .................................................:
  1:T=1733, 2:P=336000, 3:N(CS)=5.74018E-05, 4:N(MO)=.000117611, 5:MU(O)=
    -451712
 Degrees of freedom are   0

Some global data, reference state SER ......................:
T=   1733.00 K (  1459.85 C), P=  3.3600E+05 Pa, V=  2.4195E-06 m3
N=   1.7501E-04 moles, B=   1.8913E-02 g, RT=   1.4409E+04 J/mol
G= -2.48616E+01 J, G/N=-1.4206E+05 J/mol, H= 1.0901E+01 J, S= 2.064E-02 J/K

Some data for components ...................................:
Component name    Moles      Mole-fr  Chem.pot/RT  Activities  Ref.state
CS                5.7402E-05  0.32799 -1.6944E+01  4.3785E-08  SER (default)   
MO                1.1761E-04  0.67201 -6.4008E+00  1.6603E-03  SER (default)   
O                 1.4357E-15  0.00000 -3.1349E+01  2.4278E-14  GAS             

Some data for phases .......................................:
Name                Status Moles      Volume    Form.Units Cmp/FU dGm/RT  Comp:
GAS..................... E  5.725E-05  2.42E-06  5.64E-05    1.01  0.00E+00  X:
 CS     1.00000E+00  O      1.82878E-11  MO     2.41409E-13
Constitution: There are    18 constituents:
 CS           9.85288E-01  MO2          1.57609E-19  MO4O12       1.00000E-30
 CS2          1.47120E-02  MOO          9.87965E-20  MOO3         1.00000E-30
 CS2O         1.85215E-11  MOO2         8.63544E-26  MO3O9        1.00000E-30
 MO           2.44960E-13  CS2O2        7.32038E-26  MO2O6        1.00000E-30
 CSO          3.53676E-14  O2           5.89433E-28  O3           1.00000E-30
 O            8.34345E-19  CS2MOO4      1.01685E-30  MO5O15       1.00000E-30

BCC_A2_CHKD#2........... E  1.178E-04  0.00E+00  1.18E-04    1.00  0.00E+00  X:
 MO     9.98705E-01  CS     1.29503E-03  O      3.30066E-12


----------------------------------------

[OC parser] Parsed components
  Cs : moles=5.7402e-05, x=0.32799, mu/RT=-16.944, activity=4.3785e-08, ref=SER (default)
  Mo : moles=0.00011761, x=0.67201, mu/RT=-6.4008, activity=0.0016603, ref=SER (default)
  O : moles=1.4357e-15, x=0, mu/RT=-31.349, activity=2.4278e-14, ref=GAS

[OC parser] Parsed phases
  Phase condensed : moles=0.0001178, volume=0
    Elements
      Cs = 1.52555e-07
      Mo = 0.000117647
      O = 3.88818e-16
    Species
      BCC_A2 : moles=0.0001178, volume=0
        Cs = 1.52555e-07
        Mo = 0.000117647
        O = 3.88818e-16
  Phase gas : moles=5.725e-05, volume=2.42e-06
    Elements
      Cs = 5.725e-05
      Mo = 1.38207e-17
      O = 1.04698e-15
    Species
      CS : moles=5.64077e-05, volume=0
      CS2 : moles=8.42262e-07, volume=0
      CS2MOO4 : moles=5.82147e-35, volume=0
      CS2O : moles=1.06036e-15, volume=0
      CS2O2 : moles=4.19092e-30, volume=0
      CSO : moles=2.0248e-18, volume=0
      MO : moles=1.4024e-17, volume=0
      MO2 : moles=9.02312e-24, volume=0
      MO2O6 : moles=5.725e-35, volume=0
      MO3O9 : moles=5.725e-35, volume=0
      MO4O12 : moles=5.725e-35, volume=0
      MO5O15 : moles=5.725e-35, volume=0
      MOO : moles=5.6561e-24, volume=0
      MOO2 : moles=4.94379e-30, volume=0
      MOO3 : moles=5.725e-35, volume=0
      O : moles=4.77663e-23, volume=0
      O2 : moles=3.3745e-32, volume=0
      O3 : moles=5.725e-35, volume=0
      are : moles=0.0010305, volume=0
OpenCalphad attempt for 'matrix' with WARM-START

[OC input] ./OCinput_matrix.OCM
----------------------------------------
r u ./OCoutput_matrix.OCU

set ref o gas * 100000

set c t=1733
set c p=404000
set c n(o)=0.664709
set c n(pu)=0.0952027
set c n(u)=0.240088
c e
c w

save u ./OCoutput_matrix Y

l /out=./OCoutput_matrix.DAT r 1

fin
----------------------------------------

3A unfished preparations for XTDB


Open Calphad (OC) software version   6.106 , linked 2026-04-16
with command line monitor version  73

This program is available with a GNU General Public License.
either version 2 of the License, or any later version.
It includes the General Thermodynamic Package, version GTP-3.31,
Hillert's equilibrium calculation algorithm version HMS-3.0 ,
step/map/plot software version SMP-2.30 using GNUPLOT 5.2 graphics.
Numerical routines are extracted from LAPACK and BLAS and
the assessment procedure uses LMDIF from ANL.

Linked with OpenMp for parallel execution
 Warning, no environment variable OCHOME and no help file
 Working directory is: /home/ecappellari/transparant/sciantix-official/regression/test_JOG_MOX/point_04_r_1p2mm
--->OC6:
Read unformatted file: This is a save file for OC version:     OCF-3.20
Generated:  2026.04.19 21h33

 3E reading unformatted:        15024           0           0
3E Addition type   1, Inden-Hillert magn model for BCC_A2
3E Addition type   1, Inden-Hillert magn model for FCC_A1
 3E no experimental data
 3E no coefficient values saved
 3E Read assessment record
 No coefficients allocated
--->OC6:--->OC6:--->OC6:--->OC6:--->OC6:--->OC6:--->OC6:--->OC6:--->OC6:3Y Removed  1 gridpoints by merging
Gridmin:    7483 points   1.87E-02 s and      16 clockcycles, T= 1733.00
 3Y leaving global_gridmin
Phase change iteration:     4  -C1_MO2_AUTO#2
Equilibrium result:  17 its,  2.0162E-02 s,     20 cc, GS= -4.5022994E+05 J/mol
--->OC6:Equilibrium result:   9 its,  6.2000E-04 s,      1 cc, GS= -4.5022994E+05 J/mol
3Y Testing if any gridpoint is below the calculated equilibrium
--->OC6:--->OC6:
Overwriting previous results on ./OCoutput_matrix.OCU
3E allocating workspace:     122160          (   2160,   10000,    2)
 3E saving            3  symbols as texts
 3E used        12117  words out of       122160  for storing static data
 ceqrecsize not implemented          26
 3E Saving an equilibrium record requires     2854       0 words
 3E not storing unused equilibria from:            2
 3E Saving assessment record
 3E No experimental equilibrium range set
 3E allocating assessment head record          48
 3E no coefficients allocated
 3E no work array (assrec%wopt) allocated
Used    15059 words out of   122160,  12.33% for unformatted memory save
Written workspace      60236 bytes unformatted on ./OCoutput_matrix.OCU
--->OC6:--->OC6:Output on file: ./OCoutput_matrix.DAT
Output unit reset to screen:    6
--->OC6:--->OC6:
[OC output] ./OCoutput_matrix.DAT
----------------------------------------

%%%%%%%%%% OC output written: 2026-04-19  21h33

Output for equilibrium:   1, DEFAULT_EQUILIBRIUM          2026.04.19
Conditions .................................................:
  1:T=1733, 2:P=404000, 3:N(O)=0.664709, 4:N(PU)=.0952027, 5:N(U)=0.240088
 Degrees of freedom are   0

Some global data, reference state SER ......................:
T=   1733.00 K (  1459.85 C), P=  4.0400E+05 Pa, V=  0.0000E+00 m3
N=   1.0000E+00 moles, B=   9.1018E+01 g, RT=   1.4409E+04 J/mol
G= -4.50230E+05 J, G/N=-4.5023E+05 J/mol, H=-3.1933E+05 J, S= 7.553E+01 J/K

Some data for components ...................................:
Component name    Moles      Mole-fr  Chem.pot/RT  Activities  Ref.state
O                 6.6471E-01  0.66471 -1.5563E+01  1.7428E-07  GAS             
PU                9.5203E-02  0.09520 -3.5536E+01  3.6900E-16  SER (default)   
U                 2.4009E-01  0.24009 -3.5774E+01  2.9075E-16  SER (default)   

Some data for phases .......................................:
Name                Status Moles      Volume    Form.Units Cmp/FU dGm/RT  Comp:
C1_MO2#1................ E  1.000E+00  0.00E+00  3.35E-01    2.98  0.00E+00  X:
 O      6.64709E-01  U      2.40088E-01  PU     9.52027E-02


----------------------------------------

[OC parser] Parsed components
  O : moles=0.66471, x=0.66471, mu/RT=-15.563, activity=1.7428e-07, ref=GAS
  Pu : moles=0.095203, x=0.0952, mu/RT=-35.536, activity=3.69e-16, ref=SER (default)
  U : moles=0.24009, x=0.24009, mu/RT=-35.774, activity=2.9075e-16, ref=SER (default)

[OC parser] Parsed phases
  Phase condensed : moles=1, volume=0
    Elements
      O = 0.664709
      Pu = 0.0952027
      U = 0.240088
    Species
      C1_MO2 : moles=1, volume=0
        O = 0.664709
        Pu = 0.0952027
        U = 0.240088
OpenCalphad attempt for 'at grain boundary' with WARM-START

[OC input] ./OCinput_fission_products.OCM
----------------------------------------
r u ./OCoutput_fission_products.OCU

set ref o gas * 100000

set c t=1733
set c p=404000
set c n(cs)=5.96143e-05
set c n(mo)=0.00020021
set c n(o)=0.99974
c e
set c n(o)=none
set c mu(o)=-448485

c w

save u ./OCoutput_fission_products Y

l /out=./OCoutput_fission_products.DAT r 1

fin
----------------------------------------

3A unfished preparations for XTDB


Open Calphad (OC) software version   6.106 , linked 2026-04-16
with command line monitor version  73

This program is available with a GNU General Public License.
either version 2 of the License, or any later version.
It includes the General Thermodynamic Package, version GTP-3.31,
Hillert's equilibrium calculation algorithm version HMS-3.0 ,
step/map/plot software version SMP-2.30 using GNUPLOT 5.2 graphics.
Numerical routines are extracted from LAPACK and BLAS and
the assessment procedure uses LMDIF from ANL.

Linked with OpenMp for parallel execution
 Warning, no environment variable OCHOME and no help file
 Working directory is: /home/ecappellari/transparant/sciantix-official/regression/test_JOG_MOX/point_04_r_1p2mm
--->OC6:
Read unformatted file: This is a save file for OC version:     OCF-3.20
Generated:  2026.04.19 21h33

 3E reading unformatted:        16646           0           0
3E Addition type   1, Inden-Hillert magn model for BCC_A2
3E Addition type   1, Inden-Hillert magn model for FCC_A1
3E Addition type   1, Inden-Hillert magn model for HCP_A3
 3E no experimental data
 3E no coefficient values saved
 3E Read assessment record
 No coefficients allocated
--->OC6:--->OC6:--->OC6:--->OC6:--->OC6:--->OC6:--->OC6:--->OC6:--->OC6:
Error codes:   4144     0    50
Message: Degrees of freedom not zero

--->OC6:--->OC6:--->OC6:--->OC6:Equilibrium result:   9 its,  7.8300E-04 s,      1 cc, GS= -3.2864735E+01 J/mol
3Y Testing if any gridpoint is below the calculated equilibrium
--->OC6:--->OC6:
Overwriting previous results on ./OCoutput_fission_products.OCU
3E allocating workspace:     123330          (   3330,   10000,    2)
 3E saving            3  symbols as texts
 3E used        12291  words out of       123330  for storing static data
 ceqrecsize not implemented          40
 3E Saving an equilibrium record requires     4302       0 words
 3E not storing unused equilibria from:            2
 3E Saving assessment record
 3E No experimental equilibrium range set
 3E allocating assessment head record          48
 3E no coefficients allocated
 3E no work array (assrec%wopt) allocated
Used    16681 words out of   123330,  13.53% for unformatted memory save
Written workspace      66724 bytes unformatted on ./OCoutput_fission_products.OCU
--->OC6:--->OC6:Output on file: ./OCoutput_fission_products.DAT
Output unit reset to screen:    6
--->OC6:--->OC6:
[OC output] ./OCoutput_fission_products.DAT
----------------------------------------

%%%%%%%%%% OC output written: 2026-04-19  21h33

Output for equilibrium:   1, DEFAULT_EQUILIBRIUM          2026.04.19
Conditions .................................................:
  1:T=1733, 2:P=404000, 3:N(CS)=5.96143E-05, 4:N(MO)=.00020021, 5:MU(O)=
    -448485
 Degrees of freedom are   0

Some global data, reference state SER ......................:
T=   1733.00 K (  1459.85 C), P=  4.0400E+05 Pa, V=  2.0785E-06 m3
N=   2.5982E-04 moles, B=   2.7131E-02 g, RT=   1.4409E+04 J/mol
G= -3.28647E+01 J, G/N=-1.2649E+05 J/mol, H= 1.4524E+01 J, S= 2.734E-02 J/K

Some data for components ...................................:
Component name    Moles      Mole-fr  Chem.pot/RT  Activities  Ref.state
CS                5.9614E-05  0.22944 -1.6763E+01  5.2492E-08  SER (default)   
MO                2.0021E-04  0.77056 -6.4010E+00  1.6598E-03  SER (default)   
O                 2.4346E-15  0.00000 -3.1125E+01  3.0372E-14  GAS             

Some data for phases .......................................:
Name                Status Moles      Volume    Form.Units Cmp/FU dGm/RT  Comp:
GAS..................... E  5.930E-05  2.08E-06  5.83E-05    1.02  0.00E+00  X:
 CS     1.00000E+00  O      2.98940E-11  MO     2.00157E-13
Constitution: There are    18 constituents:
 CS           9.82414E-01  MO2          1.31013E-19  MO4O12       1.00000E-30
 CS2          1.75864E-02  MOO          1.12686E-19  MOO3         1.00000E-30
 CS2O         3.03714E-11  CS2O2        1.64667E-25  MO3O9        1.00000E-30
 MO           2.03676E-13  MOO2         1.35114E-25  MO2O6        1.00000E-30
 CSO          4.83750E-14  O2           9.22488E-28  O3           1.00000E-30
 O            9.51892E-19  CS2MOO4      4.30313E-30  MO5O15       1.00000E-30

BCC_A2_CHKD#2........... E  2.005E-04  0.00E+00  2.01E-04    1.00  0.00E+00  X:
 MO     9.98445E-01  CS     1.55538E-03  O      3.30066E-12


----------------------------------------

[OC parser] Parsed components
  Cs : moles=5.9614e-05, x=0.22944, mu/RT=-16.763, activity=5.2492e-08, ref=SER (default)
  Mo : moles=0.00020021, x=0.77056, mu/RT=-6.401, activity=0.0016598, ref=SER (default)
  O : moles=2.4346e-15, x=0, mu/RT=-31.125, activity=3.0372e-14, ref=GAS

[OC parser] Parsed phases
  Phase condensed : moles=0.0002005, volume=0
    Elements
      Cs = 3.11854e-07
      Mo = 0.000200188
      O = 6.61782e-16
    Species
      BCC_A2 : moles=0.0002005, volume=0
        Cs = 3.11854e-07
        Mo = 0.000200188
        O = 6.61782e-16
  Phase gas : moles=5.93e-05, volume=2.08e-06
    Elements
      Cs = 5.93e-05
      Mo = 1.18693e-17
      O = 1.77271e-15
    Species
      CS : moles=5.82572e-05, volume=0
      CS2 : moles=1.04287e-06, volume=0
      CS2MOO4 : moles=2.55176e-34, volume=0
      CS2O : moles=1.80102e-15, volume=0
      CS2O2 : moles=9.76475e-30, volume=0
      CSO : moles=2.86864e-18, volume=0
      MO : moles=1.2078e-17, volume=0
      MO2 : moles=7.76907e-24, volume=0
      MO2O6 : moles=5.93e-35, volume=0
      MO3O9 : moles=5.93e-35, volume=0
      MO4O12 : moles=5.93e-35, volume=0
      MO5O15 : moles=5.93e-35, volume=0
      MOO : moles=6.68228e-24, volume=0
      MOO2 : moles=8.01226e-30, volume=0
      MOO3 : moles=5.93e-35, volume=0
      O : moles=5.64472e-23, volume=0
      O2 : moles=5.47035e-32, volume=0
      O3 : moles=5.93e-35, volume=0
      are : moles=0.0010674, volume=0
OpenCalphad attempt for 'matrix' with WARM-START

[OC input] ./OCinput_matrix.OCM
----------------------------------------
r u ./OCoutput_matrix.OCU

set ref o gas * 100000

set c t=1733
set c p=472000
set c n(o)=0.664991
set c n(pu)=0.0948194
set c n(u)=0.24019
c e
c w

save u ./OCoutput_matrix Y

l /out=./OCoutput_matrix.DAT r 1

fin
----------------------------------------

3A unfished preparations for XTDB


Open Calphad (OC) software version   6.106 , linked 2026-04-16
with command line monitor version  73

This program is available with a GNU General Public License.
either version 2 of the License, or any later version.
It includes the General Thermodynamic Package, version GTP-3.31,
Hillert's equilibrium calculation algorithm version HMS-3.0 ,
step/map/plot software version SMP-2.30 using GNUPLOT 5.2 graphics.
Numerical routines are extracted from LAPACK and BLAS and
the assessment procedure uses LMDIF from ANL.

Linked with OpenMp for parallel execution
 Warning, no environment variable OCHOME and no help file
 Working directory is: /home/ecappellari/transparant/sciantix-official/regression/test_JOG_MOX/point_04_r_1p2mm
--->OC6:
Read unformatted file: This is a save file for OC version:     OCF-3.20
Generated:  2026.04.19 21h33

 3E reading unformatted:        15024           0           0
3E Addition type   1, Inden-Hillert magn model for BCC_A2
3E Addition type   1, Inden-Hillert magn model for FCC_A1
 3E no experimental data
 3E no coefficient values saved
 3E Read assessment record
 No coefficients allocated
--->OC6:--->OC6:--->OC6:--->OC6:--->OC6:--->OC6:--->OC6:--->OC6:--->OC6:3Y Removed  1 gridpoints by merging
Gridmin:    7483 points   1.63E-02 s and      14 clockcycles, T= 1733.00
 3Y leaving global_gridmin
Phase change iteration:     4  -C1_MO2_AUTO#2
Equilibrium result:  17 its,  1.7783E-02 s,     18 cc, GS= -4.5020277E+05 J/mol
--->OC6:Equilibrium result:  20 its,  1.3650E-03 s,      2 cc, GS= -4.5020277E+05 J/mol
3Y Testing if any gridpoint is below the calculated equilibrium
--->OC6:--->OC6:
Overwriting previous results on ./OCoutput_matrix.OCU
3E allocating workspace:     122160          (   2160,   10000,    2)
 3E saving            3  symbols as texts
 3E used        12117  words out of       122160  for storing static data
 ceqrecsize not implemented          26
 3E Saving an equilibrium record requires     2854       0 words
 3E not storing unused equilibria from:            2
 3E Saving assessment record
 3E No experimental equilibrium range set
 3E allocating assessment head record          48
 3E no coefficients allocated
 3E no work array (assrec%wopt) allocated
Used    15059 words out of   122160,  12.33% for unformatted memory save
Written workspace      60236 bytes unformatted on ./OCoutput_matrix.OCU
--->OC6:--->OC6:Output on file: ./OCoutput_matrix.DAT
Output unit reset to screen:    6
--->OC6:--->OC6:
[OC output] ./OCoutput_matrix.DAT
----------------------------------------

%%%%%%%%%% OC output written: 2026-04-19  21h33

Output for equilibrium:   1, DEFAULT_EQUILIBRIUM          2026.04.19
Conditions .................................................:
  1:T=1733, 2:P=472000, 3:N(O)=0.664991, 4:N(PU)=.0948194, 5:N(U)=0.24019
 Degrees of freedom are   0

Some global data, reference state SER ......................:
T=   1733.00 K (  1459.85 C), P=  4.7200E+05 Pa, V=  0.0000E+00 m3
N=   1.0000E+00 moles, B=   9.0953E+01 g, RT=   1.4409E+04 J/mol
G= -4.50203E+05 J, G/N=-4.5020E+05 J/mol, H=-3.1941E+05 J, S= 7.547E+01 J/K

Some data for components ...................................:
Component name    Moles      Mole-fr  Chem.pot/RT  Activities  Ref.state
O                 6.6499E-01  0.66499 -1.5415E+01  2.0193E-07  GAS             
PU                9.4819E-02  0.09482 -3.5973E+01  2.3832E-16  SER (default)   
U                 2.4019E-01  0.24019 -3.6224E+01  1.8537E-16  SER (default)   

Some data for phases .......................................:
Name                Status Moles      Volume    Form.Units Cmp/FU dGm/RT  Comp:
C1_MO2#1................ E  1.000E+00  0.00E+00  3.35E-01    2.98  0.00E+00  X:
 O      6.64991E-01  U      2.40190E-01  PU     9.48194E-02

C1_MO2_AUTO#2........... E  0.000E+00  0.00E+00  0.00E+00    2.64  5.68E-05  X:
 O      6.21469E-01  U      2.28867E-01  PU     1.49664E-01


----------------------------------------

[OC parser] Parsed components
  O : moles=0.66499, x=0.66499, mu/RT=-15.415, activity=2.0193e-07, ref=GAS
  Pu : moles=0.094819, x=0.09482, mu/RT=-35.973, activity=2.3832e-16, ref=SER (default)
  U : moles=0.24019, x=0.24019, mu/RT=-36.224, activity=1.8537e-16, ref=SER (default)

[OC parser] Parsed phases
  Phase condensed : moles=1, volume=0
    Elements
      O = 1.28646
      Pu = 0.244483
      U = 0.469057
    Species
      C1_MO2 : moles=1, volume=0
        O = 0.621469
        Pu = 0.149664
        U = 0.228867
OpenCalphad attempt for 'at grain boundary' with WARM-START

[OC input] ./OCinput_fission_products.OCM
----------------------------------------
r u ./OCoutput_fission_products.OCU

set ref o gas * 100000

set c t=1733
set c p=472000
set c n(cs)=6.01897e-05
set c n(mo)=0.000292835
set c n(o)=0.999647
c e
set c n(o)=none
set c mu(o)=-444220

c w

save u ./OCoutput_fission_products Y

l /out=./OCoutput_fission_products.DAT r 1

fin
----------------------------------------

3A unfished preparations for XTDB


Open Calphad (OC) software version   6.106 , linked 2026-04-16
with command line monitor version  73

This program is available with a GNU General Public License.
either version 2 of the License, or any later version.
It includes the General Thermodynamic Package, version GTP-3.31,
Hillert's equilibrium calculation algorithm version HMS-3.0 ,
step/map/plot software version SMP-2.30 using GNUPLOT 5.2 graphics.
Numerical routines are extracted from LAPACK and BLAS and
the assessment procedure uses LMDIF from ANL.

Linked with OpenMp for parallel execution
 Warning, no environment variable OCHOME and no help file
 Working directory is: /home/ecappellari/transparant/sciantix-official/regression/test_JOG_MOX/point_04_r_1p2mm
--->OC6:
Read unformatted file: This is a save file for OC version:     OCF-3.20
Generated:  2026.04.19 21h33

 3E reading unformatted:        16646           0           0
3E Addition type   1, Inden-Hillert magn model for BCC_A2
3E Addition type   1, Inden-Hillert magn model for FCC_A1
3E Addition type   1, Inden-Hillert magn model for HCP_A3
 3E no experimental data
 3E no coefficient values saved
 3E Read assessment record
 No coefficients allocated
--->OC6:--->OC6:--->OC6:--->OC6:--->OC6:--->OC6:--->OC6:--->OC6:--->OC6:
Error codes:   4144     0    50
Message: Degrees of freedom not zero

--->OC6:--->OC6:--->OC6:--->OC6:Equilibrium result:  10 its,  8.3500E-04 s,      1 cc, GS= -4.1415449E+01 J/mol
3Y Testing if any gridpoint is below the calculated equilibrium
--->OC6:--->OC6:
Overwriting previous results on ./OCoutput_fission_products.OCU
3E allocating workspace:     123330          (   3330,   10000,    2)
 3E saving            3  symbols as texts
 3E used        12291  words out of       123330  for storing static data
 ceqrecsize not implemented          40
 3E Saving an equilibrium record requires     4302       0 words
 3E not storing unused equilibria from:            2
 3E Saving assessment record
 3E No experimental equilibrium range set
 3E allocating assessment head record          48
 3E no coefficients allocated
 3E no work array (assrec%wopt) allocated
Used    16681 words out of   123330,  13.53% for unformatted memory save
Written workspace      66724 bytes unformatted on ./OCoutput_fission_products.OCU
--->OC6:--->OC6:Output on file: ./OCoutput_fission_products.DAT
Output unit reset to screen:    6
--->OC6:--->OC6:
[OC output] ./OCoutput_fission_products.DAT
----------------------------------------

%%%%%%%%%% OC output written: 2026-04-19  21h33

Output for equilibrium:   1, DEFAULT_EQUILIBRIUM          2026.04.19
Conditions .................................................:
  1:T=1733, 2:P=472000, 3:N(CS)=6.01897E-05, 4:N(MO)=.000292835, 5:MU(O)=
    -444220
 Degrees of freedom are   0

Some global data, reference state SER ......................:
T=   1733.00 K (  1459.85 C), P=  4.7200E+05 Pa, V=  1.7847E-06 m3
N=   3.5302E-04 moles, B=   3.6094E-02 g, RT=   1.4409E+04 J/mol
G= -4.14154E+01 J, G/N=-1.1732E+05 J/mol, H= 1.8386E+01 J, S= 3.451E-02 J/K

Some data for components ...................................:
Component name    Moles      Mole-fr  Chem.pot/RT  Activities  Ref.state
CS                6.0190E-05  0.17050 -1.6610E+01  6.1150E-08  SER (default)   
MO                2.9284E-04  0.82950 -6.4013E+00  1.6594E-03  SER (default)   
O                 3.9696E-15  0.00000 -3.0829E+01  4.0835E-14  GAS             

Some data for phases .......................................:
Name                Status Moles      Volume    Form.Units Cmp/FU dGm/RT  Comp:
GAS..................... E  5.966E-05  1.78E-06  5.85E-05    1.02  0.00E+00  X:
 CS     1.00000E+00  O      5.03095E-11  MO     1.70800E-13
Constitution: There are    18 constituents:
 CS           9.79572E-01  MOO          1.40129E-19  MO4O12       1.00000E-30
 CS2          2.04278E-02  MO2          1.12081E-19  MOO3         1.00000E-30
 CS2O         5.12671E-11  CS2O2        4.03933E-25  MO3O9        1.00000E-30
 MO           1.74288E-13  MOO2         2.44166E-25  MO2O6        1.00000E-30
 CSO          7.00958E-14  O2           1.66747E-27  O3           1.00000E-30
 O            1.18401E-18  CS2MOO4      2.22861E-29  MO5O15       1.00000E-30

BCC_A2_CHKD#2........... E  2.934E-04  0.00E+00  2.93E-04    1.00  0.00E+00  X:
 MO     9.98185E-01  CS     1.81518E-03  O      3.30066E-12


----------------------------------------

[OC parser] Parsed components
  Cs : moles=6.019e-05, x=0.1705, mu/RT=-16.61, activity=6.115e-08, ref=SER (default)
  Mo : moles=0.00029284, x=0.8295, mu/RT=-6.4013, activity=0.0016594, ref=SER (default)
  O : moles=3.9696e-15, x=0, mu/RT=-30.829, activity=4.0835e-14, ref=GAS

[OC parser] Parsed phases
  Phase condensed : moles=0.0002934, volume=0
    Elements
      Cs = 5.32574e-07
      Mo = 0.000292867
      O = 9.68414e-16
    Species
      BCC_A2 : moles=0.0002934, volume=0
        Cs = 5.32574e-07
        Mo = 0.000292867
        O = 9.68414e-16
  Phase gas : moles=5.966e-05, volume=1.78e-06
    Elements
      Cs = 5.966e-05
      Mo = 1.01899e-17
      O = 3.00146e-15
    Species
      CS : moles=5.84413e-05, volume=0
      CS2 : moles=1.21872e-06, volume=0
      CS2MOO4 : moles=1.32959e-33, volume=0
      CS2O : moles=3.0586e-15, volume=0
      CS2O2 : moles=2.40986e-29, volume=0
      CSO : moles=4.18192e-18, volume=0
      MO : moles=1.0398e-17, volume=0
      MO2 : moles=6.68675e-24, volume=0
      MO2O6 : moles=5.966e-35, volume=0
      MO3O9 : moles=5.966e-35, volume=0
      MO4O12 : moles=5.966e-35, volume=0
      MO5O15 : moles=5.966e-35, volume=0
      MOO : moles=8.3601e-24, volume=0
      MOO2 : moles=1.45669e-29, volume=0
      MOO3 : moles=5.966e-35, volume=0
      O : moles=7.0638e-23, volume=0
      O2 : moles=9.94813e-32, volume=0
      O3 : moles=5.966e-35, volume=0
      are : moles=0.00107388, volume=0
OpenCalphad attempt for 'matrix' with WARM-START

[OC input] ./OCinput_matrix.OCM
----------------------------------------
r u ./OCoutput_matrix.OCU

set ref o gas * 100000

set c t=1733
set c p=540000
set c n(o)=0.665273
set c n(pu)=0.0944357
set c n(u)=0.240292
c e
c w

save u ./OCoutput_matrix Y

l /out=./OCoutput_matrix.DAT r 1

fin
----------------------------------------

3A unfished preparations for XTDB


Open Calphad (OC) software version   6.106 , linked 2026-04-16
with command line monitor version  73

This program is available with a GNU General Public License.
either version 2 of the License, or any later version.
It includes the General Thermodynamic Package, version GTP-3.31,
Hillert's equilibrium calculation algorithm version HMS-3.0 ,
step/map/plot software version SMP-2.30 using GNUPLOT 5.2 graphics.
Numerical routines are extracted from LAPACK and BLAS and
the assessment procedure uses LMDIF from ANL.

Linked with OpenMp for parallel execution
 Warning, no environment variable OCHOME and no help file
 Working directory is: /home/ecappellari/transparant/sciantix-official/regression/test_JOG_MOX/point_04_r_1p2mm
--->OC6:
Read unformatted file: This is a save file for OC version:     OCF-3.20
Generated:  2026.04.19 21h33

 3E reading unformatted:        15024           0           0
3E Addition type   1, Inden-Hillert magn model for BCC_A2
3E Addition type   1, Inden-Hillert magn model for FCC_A1
 3E no experimental data
 3E no coefficient values saved
 3E Read assessment record
 No coefficients allocated
--->OC6:--->OC6:--->OC6:--->OC6:--->OC6:--->OC6:--->OC6:--->OC6:--->OC6:3Y Removed  1 gridpoints by merging
Gridmin:    7483 points   1.60E-02 s and      14 clockcycles, T= 1733.00
 3Y leaving global_gridmin
Phase change iteration:     4  -C1_MO2_AUTO#2
Equilibrium result:  17 its,  1.7373E-02 s,     18 cc, GS= -4.5017256E+05 J/mol
--->OC6:Equilibrium result:  19 its,  1.2930E-03 s,      1 cc, GS= -4.5017256E+05 J/mol
3Y Testing if any gridpoint is below the calculated equilibrium
--->OC6:--->OC6:
Overwriting previous results on ./OCoutput_matrix.OCU
3E allocating workspace:     122160          (   2160,   10000,    2)
 3E saving            3  symbols as texts
 3E used        12117  words out of       122160  for storing static data
 ceqrecsize not implemented          26
 3E Saving an equilibrium record requires     2854       0 words
 3E not storing unused equilibria from:            2
 3E Saving assessment record
 3E No experimental equilibrium range set
 3E allocating assessment head record          48
 3E no coefficients allocated
 3E no work array (assrec%wopt) allocated
Used    15059 words out of   122160,  12.33% for unformatted memory save
Written workspace      60236 bytes unformatted on ./OCoutput_matrix.OCU
--->OC6:--->OC6:Output on file: ./OCoutput_matrix.DAT
Output unit reset to screen:    6
--->OC6:--->OC6:
[OC output] ./OCoutput_matrix.DAT
----------------------------------------

%%%%%%%%%% OC output written: 2026-04-19  21h33

Output for equilibrium:   1, DEFAULT_EQUILIBRIUM          2026.04.19
Conditions .................................................:
  1:T=1733, 2:P=540000, 3:N(O)=0.665273, 4:N(PU)=.0944357, 5:N(U)=0.240292
 Degrees of freedom are   0

Some global data, reference state SER ......................:
T=   1733.00 K (  1459.85 C), P=  5.4000E+05 Pa, V=  0.0000E+00 m3
N=   1.0000E+00 moles, B=   9.0888E+01 g, RT=   1.4409E+04 J/mol
G= -4.50173E+05 J, G/N=-4.5017E+05 J/mol, H=-3.1949E+05 J, S= 7.541E+01 J/K

Some data for components ...................................:
Component name    Moles      Mole-fr  Chem.pot/RT  Activities  Ref.state
O                 6.6527E-01  0.66527 -1.5229E+01  2.4334E-07  GAS             
PU                9.4436E-02  0.09444 -3.6467E+01  1.4533E-16  SER (default)   
U                 2.4029E-01  0.24029 -3.6732E+01  1.1154E-16  SER (default)   

Some data for phases .......................................:
Name                Status Moles      Volume    Form.Units Cmp/FU dGm/RT  Comp:
C1_MO2#1................ E  1.000E+00  0.00E+00  3.35E-01    2.99  0.00E+00  X:
 O      6.65273E-01  U      2.40292E-01  PU     9.44356E-02


----------------------------------------

[OC parser] Parsed components
  O : moles=0.66527, x=0.66527, mu/RT=-15.229, activity=2.4334e-07, ref=GAS
  Pu : moles=0.094436, x=0.09444, mu/RT=-36.467, activity=1.4533e-16, ref=SER (default)
  U : moles=0.24029, x=0.24029, mu/RT=-36.732, activity=1.1154e-16, ref=SER (default)

[OC parser] Parsed phases
  Phase condensed : moles=1, volume=0
    Elements
      O = 0.665273
      Pu = 0.0944356
      U = 0.240292
    Species
      C1_MO2 : moles=1, volume=0
        O = 0.665273
        Pu = 0.0944356
        U = 0.240292
OpenCalphad attempt for 'at grain boundary' with WARM-START

[OC input] ./OCinput_fission_products.OCM
----------------------------------------
r u ./OCoutput_fission_products.OCU

set ref o gas * 100000

set c t=1733
set c p=540000
set c n(cs)=8.61921e-05
set c n(mo)=0.000393289
set c n(o)=0.999521
c e
set c n(o)=none
set c mu(o)=-438860

c w

save u ./OCoutput_fission_products Y

l /out=./OCoutput_fission_products.DAT r 1

fin
----------------------------------------

3A unfished preparations for XTDB


Open Calphad (OC) software version   6.106 , linked 2026-04-16
with command line monitor version  73

This program is available with a GNU General Public License.
either version 2 of the License, or any later version.
It includes the General Thermodynamic Package, version GTP-3.31,
Hillert's equilibrium calculation algorithm version HMS-3.0 ,
step/map/plot software version SMP-2.30 using GNUPLOT 5.2 graphics.
Numerical routines are extracted from LAPACK and BLAS and
the assessment procedure uses LMDIF from ANL.

Linked with OpenMp for parallel execution
 Warning, no environment variable OCHOME and no help file
 Working directory is: /home/ecappellari/transparant/sciantix-official/regression/test_JOG_MOX/point_04_r_1p2mm
--->OC6:
Read unformatted file: This is a save file for OC version:     OCF-3.20
Generated:  2026.04.19 21h33

 3E reading unformatted:        16646           0           0
3E Addition type   1, Inden-Hillert magn model for BCC_A2
3E Addition type   1, Inden-Hillert magn model for FCC_A1
3E Addition type   1, Inden-Hillert magn model for HCP_A3
 3E no experimental data
 3E no coefficient values saved
 3E Read assessment record
 No coefficients allocated
--->OC6:--->OC6:--->OC6:--->OC6:--->OC6:--->OC6:--->OC6:--->OC6:--->OC6:
Error codes:   4144     0    50
Message: Degrees of freedom not zero

--->OC6:--->OC6:--->OC6:--->OC6:Equilibrium result:  10 its,  1.3650E-03 s,      1 cc, GS= -5.6742071E+01 J/mol
3Y Testing if any gridpoint is below the calculated equilibrium
--->OC6:--->OC6:
Overwriting previous results on ./OCoutput_fission_products.OCU
3E allocating workspace:     123330          (   3330,   10000,    2)
 3E saving            3  symbols as texts
 3E used        12291  words out of       123330  for storing static data
 ceqrecsize not implemented          40
 3E Saving an equilibrium record requires     4302       0 words
 3E not storing unused equilibria from:            2
 3E Saving assessment record
 3E No experimental equilibrium range set
 3E allocating assessment head record          48
 3E no coefficients allocated
 3E no work array (assrec%wopt) allocated
Used    16681 words out of   123330,  13.53% for unformatted memory save
Written workspace      66724 bytes unformatted on ./OCoutput_fission_products.OCU
--->OC6:--->OC6:Output on file: ./OCoutput_fission_products.DAT
Output unit reset to screen:    6
--->OC6:--->OC6:
[OC output] ./OCoutput_fission_products.DAT
----------------------------------------

%%%%%%%%%% OC output written: 2026-04-19  21h33

Output for equilibrium:   1, DEFAULT_EQUILIBRIUM          2026.04.19
Conditions .................................................:
  1:T=1733, 2:P=540000, 3:N(CS)=8.61921E-05, 4:N(MO)=.000393289, 5:MU(O)=
    -438860
 Degrees of freedom are   0

Some global data, reference state SER ......................:
T=   1733.00 K (  1459.85 C), P=  5.4000E+05 Pa, V=  2.2264E-06 m3
N=   4.7948E-04 moles, B=   4.9188E-02 g, RT=   1.4409E+04 J/mol
G= -5.67421E+01 J, G/N=-1.1834E+05 J/mol, H= 2.5245E+01 J, S= 4.731E-02 J/K

Some data for components ...................................:
Component name    Moles      Mole-fr  Chem.pot/RT  Activities  Ref.state
CS                8.6192E-05  0.17976 -1.6478E+01  6.9760E-08  SER (default)   
MO                3.9329E-04  0.82024 -6.4015E+00  1.6590E-03  SER (default)   
O                 8.8595E-15  0.00000 -3.0457E+01  5.9235E-14  GAS             

Some data for phases .......................................:
Name                Status Moles      Volume    Form.Units Cmp/FU dGm/RT  Comp:
GAS..................... E  8.537E-05  2.23E-06  8.34E-05    1.02  0.00E+00  X:
 CS     1.00000E+00  O      8.85357E-11  MO     1.48844E-13
Constitution: There are    18 constituents:
 CS           9.76763E-01  MOO          1.89996E-19  MO4O12       1.00000E-30
 CS2          2.32370E-02  MO2          9.79168E-20  MOO3         1.00000E-30
 CS2O         9.04845E-11  CS2O2        1.10618E-24  MO3O9        1.00000E-30
 MO           1.52302E-13  MOO2         5.13663E-25  MO2O6        1.00000E-30
 CSO          1.08448E-13  O2           3.50884E-27  O3           1.00000E-30
 O            1.60577E-18  CS2MOO4      1.46891E-28  MO5O15       1.00000E-30

BCC_A2_CHKD#2........... E  3.941E-04  0.00E+00  3.94E-04    1.00  0.00E+00  X:
 MO     9.97926E-01  CS     2.07446E-03  O      3.30066E-12


----------------------------------------

[OC parser] Parsed components
  Cs : moles=8.6192e-05, x=0.17976, mu/RT=-16.478, activity=6.976e-08, ref=SER (default)
  Mo : moles=0.00039329, x=0.82024, mu/RT=-6.4015, activity=0.001659, ref=SER (default)
  O : moles=8.8595e-15, x=0, mu/RT=-30.457, activity=5.9235e-14, ref=GAS

[OC parser] Parsed phases
  Phase condensed : moles=0.0003941, volume=0
    Elements
      Cs = 8.17545e-07
      Mo = 0.000393283
      O = 1.30079e-15
    Species
      BCC_A2 : moles=0.0003941, volume=0
        Cs = 8.17545e-07
        Mo = 0.000393283
        O = 1.30079e-15
  Phase gas : moles=8.537e-05, volume=2.23e-06
    Elements
      Cs = 8.537e-05
      Mo = 1.27068e-17
      O = 7.55829e-15
    Species
      CS : moles=8.33863e-05, volume=0
      CS2 : moles=1.98374e-06, volume=0
      CS2MOO4 : moles=1.25401e-32, volume=0
      CS2O : moles=7.72466e-15, volume=0
      CS2O2 : moles=9.44346e-29, volume=0
      CSO : moles=9.25821e-18, volume=0
      MO : moles=1.3002e-17, volume=0
      MO2 : moles=8.35916e-24, volume=0
      MO2O6 : moles=8.537e-35, volume=0
      MO3O9 : moles=8.537e-35, volume=0
      MO4O12 : moles=8.537e-35, volume=0
      MO5O15 : moles=8.537e-35, volume=0
      MOO : moles=1.622e-23, volume=0
      MOO2 : moles=4.38514e-29, volume=0
      MOO3 : moles=8.537e-35, volume=0
      O : moles=1.37085e-22, volume=0
      O2 : moles=2.9955e-31, volume=0
      O3 : moles=8.537e-35, volume=0
      are : moles=0.00153666, volume=0
OpenCalphad attempt for 'matrix' with WARM-START

[OC input] ./OCinput_matrix.OCM
----------------------------------------
r u ./OCoutput_matrix.OCU

set ref o gas * 100000

set c t=1733
set c p=608000
set c n(o)=0.665555
set c n(pu)=0.0940517
set c n(u)=0.240394
c e
c w

save u ./OCoutput_matrix Y

l /out=./OCoutput_matrix.DAT r 1

fin
----------------------------------------

3A unfished preparations for XTDB


Open Calphad (OC) software version   6.106 , linked 2026-04-16
with command line monitor version  73

This program is available with a GNU General Public License.
either version 2 of the License, or any later version.
It includes the General Thermodynamic Package, version GTP-3.31,
Hillert's equilibrium calculation algorithm version HMS-3.0 ,
step/map/plot software version SMP-2.30 using GNUPLOT 5.2 graphics.
Numerical routines are extracted from LAPACK and BLAS and
the assessment procedure uses LMDIF from ANL.

Linked with OpenMp for parallel execution
 Warning, no environment variable OCHOME and no help file
 Working directory is: /home/ecappellari/transparant/sciantix-official/regression/test_JOG_MOX/point_04_r_1p2mm
--->OC6:
Read unformatted file: This is a save file for OC version:     OCF-3.20
Generated:  2026.04.19 21h33

 3E reading unformatted:        15024           0           0
3E Addition type   1, Inden-Hillert magn model for BCC_A2
3E Addition type   1, Inden-Hillert magn model for FCC_A1
 3E no experimental data
 3E no coefficient values saved
 3E Read assessment record
 No coefficients allocated
--->OC6:--->OC6:--->OC6:--->OC6:--->OC6:--->OC6:--->OC6:--->OC6:--->OC6:3Y Removed  1 gridpoints by merging
Gridmin:    7483 points   1.93E-02 s and      16 clockcycles, T= 1733.00
 3Y leaving global_gridmin
Phase change iteration:     4  -C1_MO2_AUTO#2
Equilibrium result:  17 its,  2.1087E-02 s,     22 cc, GS= -4.5013893E+05 J/mol
--->OC6:Equilibrium result:  19 its,  1.6390E-03 s,      1 cc, GS= -4.5013893E+05 J/mol
3Y Testing if any gridpoint is below the calculated equilibrium
--->OC6:--->OC6:
Overwriting previous results on ./OCoutput_matrix.OCU
3E allocating workspace:     122160          (   2160,   10000,    2)
 3E saving            3  symbols as texts
 3E used        12117  words out of       122160  for storing static data
 ceqrecsize not implemented          26
 3E Saving an equilibrium record requires     2854       0 words
 3E not storing unused equilibria from:            2
 3E Saving assessment record
 3E No experimental equilibrium range set
 3E allocating assessment head record          48
 3E no coefficients allocated
 3E no work array (assrec%wopt) allocated
Used    15059 words out of   122160,  12.33% for unformatted memory save
Written workspace      60236 bytes unformatted on ./OCoutput_matrix.OCU
--->OC6:--->OC6:Output on file: ./OCoutput_matrix.DAT
Output unit reset to screen:    6
--->OC6:--->OC6:
[OC output] ./OCoutput_matrix.DAT
----------------------------------------

%%%%%%%%%% OC output written: 2026-04-19  21h33

Output for equilibrium:   1, DEFAULT_EQUILIBRIUM          2026.04.19
Conditions .................................................:
  1:T=1733, 2:P=608000, 3:N(O)=0.665555, 4:N(PU)=.0940517, 5:N(U)=0.240394
 Degrees of freedom are   0

Some global data, reference state SER ......................:
T=   1733.00 K (  1459.85 C), P=  6.0800E+05 Pa, V=  0.0000E+00 m3
N=   1.0000E+00 moles, B=   9.0823E+01 g, RT=   1.4409E+04 J/mol
G= -4.50139E+05 J, G/N=-4.5014E+05 J/mol, H=-3.1956E+05 J, S= 7.535E+01 J/K

Some data for components ...................................:
Component name    Moles      Mole-fr  Chem.pot/RT  Activities  Ref.state
O                 6.6555E-01  0.66555 -1.4993E+01  3.0814E-07  GAS             
PU                9.4052E-02  0.09405 -3.7045E+01  8.1575E-17  SER (default)   
U                 2.4039E-01  0.24039 -3.7324E+01  6.1743E-17  SER (default)   

Some data for phases .......................................:
Name                Status Moles      Volume    Form.Units Cmp/FU dGm/RT  Comp:
C1_MO2#1................ E  1.000E+00  0.00E+00  3.34E-01    2.99  0.00E+00  X:
 O      6.65555E-01  U      2.40394E-01  PU     9.40516E-02


----------------------------------------

[OC parser] Parsed components
  O : moles=0.66555, x=0.66555, mu/RT=-14.993, activity=3.0814e-07, ref=GAS
  Pu : moles=0.094052, x=0.09405, mu/RT=-37.045, activity=8.1575e-17, ref=SER (default)
  U : moles=0.24039, x=0.24039, mu/RT=-37.324, activity=6.1743e-17, ref=SER (default)

[OC parser] Parsed phases
  Phase condensed : moles=1, volume=0
    Elements
      O = 0.665555
      Pu = 0.0940516
      U = 0.240394
    Species
      C1_MO2 : moles=1, volume=0
        O = 0.665555
        Pu = 0.0940516
        U = 0.240394
OpenCalphad attempt for 'at grain boundary' with WARM-START

[OC input] ./OCinput_fission_products.OCM
----------------------------------------
r u ./OCoutput_fission_products.OCU

set ref o gas * 100000

set c t=1733
set c p=608000
set c n(cs)=0.000117026
set c n(mo)=0.00050005
set c n(o)=0.999383
c e
set c n(o)=none
set c mu(o)=-432059

c w

save u ./OCoutput_fission_products Y

l /out=./OCoutput_fission_products.DAT r 1

fin
----------------------------------------

3A unfished preparations for XTDB


Open Calphad (OC) software version   6.106 , linked 2026-04-16
with command line monitor version  73

This program is available with a GNU General Public License.
either version 2 of the License, or any later version.
It includes the General Thermodynamic Package, version GTP-3.31,
Hillert's equilibrium calculation algorithm version HMS-3.0 ,
step/map/plot software version SMP-2.30 using GNUPLOT 5.2 graphics.
Numerical routines are extracted from LAPACK and BLAS and
the assessment procedure uses LMDIF from ANL.

Linked with OpenMp for parallel execution
 Warning, no environment variable OCHOME and no help file
 Working directory is: /home/ecappellari/transparant/sciantix-official/regression/test_JOG_MOX/point_04_r_1p2mm
--->OC6:
Read unformatted file: This is a save file for OC version:     OCF-3.20
Generated:  2026.04.19 21h33

 3E reading unformatted:        16646           0           0
3E Addition type   1, Inden-Hillert magn model for BCC_A2
3E Addition type   1, Inden-Hillert magn model for FCC_A1
3E Addition type   1, Inden-Hillert magn model for HCP_A3
 3E no experimental data
 3E no coefficient values saved
 3E Read assessment record
 No coefficients allocated
--->OC6:--->OC6:--->OC6:--->OC6:--->OC6:--->OC6:--->OC6:--->OC6:--->OC6:
Error codes:   4144     0    50
Message: Degrees of freedom not zero

--->OC6:--->OC6:--->OC6:--->OC6:Equilibrium result:  13 its,  1.3060E-03 s,      1 cc, GS= -7.3717420E+01 J/mol
3Y Testing if any gridpoint is below the calculated equilibrium
--->OC6:--->OC6:
Overwriting previous results on ./OCoutput_fission_products.OCU
3E allocating workspace:     123330          (   3330,   10000,    2)
 3E saving            3  symbols as texts
 3E used        12291  words out of       123330  for storing static data
 ceqrecsize not implemented          40
 3E Saving an equilibrium record requires     4302       0 words
 3E not storing unused equilibria from:            2
 3E Saving assessment record
 3E No experimental equilibrium range set
 3E allocating assessment head record          48
 3E no coefficients allocated
 3E no work array (assrec%wopt) allocated
Used    16681 words out of   123330,  13.53% for unformatted memory save
Written workspace      66724 bytes unformatted on ./OCoutput_fission_products.OCU
--->OC6:--->OC6:Output on file: ./OCoutput_fission_products.DAT
Output unit reset to screen:    6
--->OC6:--->OC6:
[OC output] ./OCoutput_fission_products.DAT
----------------------------------------

%%%%%%%%%% OC output written: 2026-04-19  21h33

Output for equilibrium:   1, DEFAULT_EQUILIBRIUM          2026.04.19
Conditions .................................................:
[...]
 3E No experimental equilibrium range set
 3E allocating assessment head record          48
 3E no coefficients allocated
 3E no work array (assrec%wopt) allocated
Used    15059 words out of   122160,  12.33% for unformatted memory save
Written workspace      60236 bytes unformatted on ./OCoutput_matrix.OCU
--->OC6:--->OC6:Output on file: ./OCoutput_matrix.DAT
Output unit reset to screen:    6
--->OC6:--->OC6:
[OC output] ./OCoutput_matrix.DAT
----------------------------------------

%%%%%%%%%% OC output written: 2026-04-19  21h33

Output for equilibrium:   1, DEFAULT_EQUILIBRIUM          2026.04.19
Conditions .................................................:
  1:T=1733, 2:P=7000000, 3:N(O)=0.693186, 4:N(PU)=.05644, 5:N(U)=0.250374
 Degrees of freedom are   0

Some global data, reference state SER ......................:
T=   1733.00 K (  1459.85 C), P=  7.0000E+06 Pa, V=  0.0000E+00 m3
N=   1.0000E+00 moles, B=   8.4462E+01 g, RT=   1.4409E+04 J/mol
G= -4.33861E+05 J, G/N=-4.3386E+05 J/mol, H=-3.0594E+05 J, S= 7.382E+01 J/K

Some data for components ...................................:
Component name    Moles      Mole-fr  Chem.pot/RT  Activities  Ref.state
O                 6.9319E-01  0.69319 -3.1019E+00  4.4961E-02  GAS             
PU                5.6440E-02  0.05644 -6.2938E+01  4.6402E-28  SER (default)   
U                 2.5037E-01  0.25037 -6.4241E+01  1.2606E-28  SER (default)   

Some data for phases .......................................:
Name                Status Moles      Volume    Form.Units Cmp/FU dGm/RT  Comp:
C1_MO2#1................ E  7.967E-01  0.00E+00  2.51E-01    3.17  0.00E+00  X:
 O      6.84489E-01  U      2.44671E-01  PU     7.08402E-02

U3O8_S4................. E  2.033E-01  0.00E+00  1.85E-02   11.00  0.00E+00  X:
 O      7.27273E-01  U      2.72727E-01  PU     0.00000E+00


----------------------------------------

[OC parser] Parsed components
  O : moles=0.69319, x=0.69319, mu/RT=-3.1019, activity=0.044961, ref=GAS
  Pu : moles=0.05644, x=0.05644, mu/RT=-62.938, activity=4.6402e-28, ref=SER (default)
  U : moles=0.25037, x=0.25037, mu/RT=-64.241, activity=1.2606e-28, ref=SER (default)

[OC parser] Parsed phases
  Phase condensed : moles=1, volume=0
    Elements
      O = 0.693187
      Pu = 0.0564384
      U = 0.250375
    Species
      C1_MO2 : moles=0.7967, volume=0
        O = 0.545332
        Pu = 0.0564384
        U = 0.194929
      U3O8_S4 : moles=0.2033, volume=0
        O = 0.147855
        Pu = 0
        U = 0.0554454
OpenCalphad attempt for 'at grain boundary' with WARM-START

[OC input] ./OCinput_fission_products.OCM
----------------------------------------
r u ./OCoutput_fission_products.OCU

set ref o gas * 100000

set c t=1733
set c p=7e+06
set c n(cs)=0.00937109
set c n(mo)=0.013186
set c n(o)=0.977443
c e
set c n(o)=none
set c mu(o)=-89388.6

c w

save u ./OCoutput_fission_products Y

l /out=./OCoutput_fission_products.DAT r 1

fin
----------------------------------------

3A unfished preparations for XTDB


Open Calphad (OC) software version   6.106 , linked 2026-04-16
with command line monitor version  73

This program is available with a GNU General Public License.
either version 2 of the License, or any later version.
It includes the General Thermodynamic Package, version GTP-3.31,
Hillert's equilibrium calculation algorithm version HMS-3.0 ,
step/map/plot software version SMP-2.30 using GNUPLOT 5.2 graphics.
Numerical routines are extracted from LAPACK and BLAS and
the assessment procedure uses LMDIF from ANL.

Linked with OpenMp for parallel execution
 Warning, no environment variable OCHOME and no help file
 Working directory is: /home/ecappellari/transparant/sciantix-official/regression/test_JOG_MOX/point_04_r_1p2mm
--->OC6:
Read unformatted file: This is a save file for OC version:     OCF-3.20
Generated:  2026.04.19 21h33

 3E reading unformatted:        16646           0           0
3E Addition type   1, Inden-Hillert magn model for BCC_A2
3E Addition type   1, Inden-Hillert magn model for FCC_A1
3E Addition type   1, Inden-Hillert magn model for HCP_A3
 3E no experimental data
 3E no coefficient values saved
 3E Read assessment record
 No coefficients allocated
--->OC6:--->OC6:--->OC6:--->OC6:--->OC6:--->OC6:--->OC6:--->OC6:--->OC6:
Error codes:   4144     0    50
Message: Degrees of freedom not zero

--->OC6:--->OC6:--->OC6:--->OC6:Equilibrium result:  11 its,  1.0080E-03 s,      1 cc, GS= -2.0097061E+04 J/mol
3Y Testing if any gridpoint is below the calculated equilibrium
--->OC6:--->OC6:
Overwriting previous results on ./OCoutput_fission_products.OCU
3E allocating workspace:     123330          (   3330,   10000,    2)
 3E saving            3  symbols as texts
 3E used        12291  words out of       123330  for storing static data
 ceqrecsize not implemented          40
 3E Saving an equilibrium record requires     4302       0 words
 3E not storing unused equilibria from:            2
 3E Saving assessment record
 3E No experimental equilibrium range set
 3E allocating assessment head record          48
 3E no coefficients allocated
 3E no work array (assrec%wopt) allocated
Used    16681 words out of   123330,  13.53% for unformatted memory save
Written workspace      66724 bytes unformatted on ./OCoutput_fission_products.OCU
--->OC6:--->OC6:Output on file: ./OCoutput_fission_products.DAT
Output unit reset to screen:    6
--->OC6:--->OC6:
[OC output] ./OCoutput_fission_products.DAT
----------------------------------------

%%%%%%%%%% OC output written: 2026-04-19  21h33

Output for equilibrium:   1, DEFAULT_EQUILIBRIUM          2026.04.19
Conditions .................................................:
  1:T=1733, 2:P=7000000, 3:N(CS)=.00937109, 4:N(MO)=.013186, 5:MU(O)=-89388.6
 Degrees of freedom are   0

Some global data, reference state SER ......................:
T=   1733.00 K (  1459.85 C), P=  7.0000E+06 Pa, V=  0.0000E+00 m3
N=   6.6801E-02 moles, B=   3.2184E+00 g, RT=   1.4409E+04 J/mol
G= -2.00971E+04 J, G/N=-3.0085E+05 J/mol, H=-1.0535E+04 J, S= 5.518E+00 J/K

Some data for components ...................................:
Component name    Moles      Mole-fr  Chem.pot/RT  Activities  Ref.state
CS                9.3711E-03  0.14028 -3.3054E+01  4.4127E-15  SER (default)   
MO                1.3186E-02  0.19739 -2.1178E+01  6.3466E-10  SER (default)   
O                 4.4244E-02  0.66232 -6.2036E+00  2.0220E-03  GAS             

Some data for phases .......................................:
Name                Status Moles      Volume    Form.Units Cmp/FU dGm/RT  Comp:
LIQUID#1................ E  6.680E-02  0.00E+00  1.32E-02    5.07  0.00E+00  X:
 O      6.62323E-01  MO     1.97393E-01  CS     1.40284E-01


----------------------------------------

[OC parser] Parsed components
  Cs : moles=0.0093711, x=0.14028, mu/RT=-33.054, activity=4.4127e-15, ref=SER (default)
  Mo : moles=0.013186, x=0.19739, mu/RT=-21.178, activity=6.3466e-10, ref=SER (default)
  O : moles=0.044244, x=0.66232, mu/RT=-6.2036, activity=0.002022, ref=GAS

[OC parser] Parsed phases
  Phase liquid : moles=0.0668, volume=0
    Elements
      Cs = 0.00937097
      Mo = 0.0131859
      O = 0.0442432
OpenCalphad attempt for 'matrix' with WARM-START

[OC input] ./OCinput_matrix.OCM
----------------------------------------
r u ./OCoutput_matrix.OCU

set ref o gas * 100000

set c t=1733
set c p=7e+06
set c n(o)=0.693186
set c n(pu)=0.05644
set c n(u)=0.250374
c e
c w

save u ./OCoutput_matrix Y

l /out=./OCoutput_matrix.DAT r 1

fin
----------------------------------------

3A unfished preparations for XTDB


Open Calphad (OC) software version   6.106 , linked 2026-04-16
with command line monitor version  73

This program is available with a GNU General Public License.
either version 2 of the License, or any later version.
It includes the General Thermodynamic Package, version GTP-3.31,
Hillert's equilibrium calculation algorithm version HMS-3.0 ,
step/map/plot software version SMP-2.30 using GNUPLOT 5.2 graphics.
Numerical routines are extracted from LAPACK and BLAS and
the assessment procedure uses LMDIF from ANL.

Linked with OpenMp for parallel execution
 Warning, no environment variable OCHOME and no help file
 Working directory is: /home/ecappellari/transparant/sciantix-official/regression/test_JOG_MOX/point_04_r_1p2mm
--->OC6:
Read unformatted file: This is a save file for OC version:     OCF-3.20
Generated:  2026.04.19 21h33

 3E reading unformatted:        15024           0           0
3E Addition type   1, Inden-Hillert magn model for BCC_A2
3E Addition type   1, Inden-Hillert magn model for FCC_A1
 3E no experimental data
 3E no coefficient values saved
 3E Read assessment record
 No coefficients allocated
--->OC6:--->OC6:--->OC6:--->OC6:--->OC6:--->OC6:--->OC6:--->OC6:--->OC6:Gridmin:    7483 points   1.58E-02 s and      13 clockcycles, T= 1733.00
 3Y leaving global_gridmin
Phase change iteration:     4  -C1_MO2_AUTO#2
Equilibrium result:  15 its,  1.7062E-02 s,     17 cc, GS= -4.3386147E+05 J/mol
--->OC6:Equilibrium result:  14 its,  9.6800E-04 s,      1 cc, GS= -4.3386146E+05 J/mol
3Y Testing if any gridpoint is below the calculated equilibrium
--->OC6:--->OC6:
Overwriting previous results on ./OCoutput_matrix.OCU
3E allocating workspace:     122160          (   2160,   10000,    2)
 3E saving            3  symbols as texts
 3E used        12117  words out of       122160  for storing static data
 ceqrecsize not implemented          26
 3E Saving an equilibrium record requires     2854       0 words
 3E not storing unused equilibria from:            2
 3E Saving assessment record
 3E No experimental equilibrium range set
 3E allocating assessment head record          48
 3E no coefficients allocated
 3E no work array (assrec%wopt) allocated
Used    15059 words out of   122160,  12.33% for unformatted memory save
Written workspace      60236 bytes unformatted on ./OCoutput_matrix.OCU
--->OC6:--->OC6:Output on file: ./OCoutput_matrix.DAT
Output unit reset to screen:    6
--->OC6:--->OC6:
[OC output] ./OCoutput_matrix.DAT
----------------------------------------

%%%%%%%%%% OC output written: 2026-04-19  21h33

Output for equilibrium:   1, DEFAULT_EQUILIBRIUM          2026.04.19
Conditions .................................................:
  1:T=1733, 2:P=7000000, 3:N(O)=0.693186, 4:N(PU)=.05644, 5:N(U)=0.250374
 Degrees of freedom are   0

Some global data, reference state SER ......................:
T=   1733.00 K (  1459.85 C), P=  7.0000E+06 Pa, V=  0.0000E+00 m3
N=   1.0000E+00 moles, B=   8.4462E+01 g, RT=   1.4409E+04 J/mol
G= -4.33861E+05 J, G/N=-4.3386E+05 J/mol, H=-3.0594E+05 J, S= 7.382E+01 J/K

Some data for components ...................................:
Component name    Moles      Mole-fr  Chem.pot/RT  Activities  Ref.state
O                 6.9319E-01  0.69319 -3.1019E+00  4.4961E-02  GAS             
PU                5.6440E-02  0.05644 -6.2938E+01  4.6402E-28  SER (default)   
U                 2.5037E-01  0.25037 -6.4241E+01  1.2606E-28  SER (default)   

Some data for phases .......................................:
Name                Status Moles      Volume    Form.Units Cmp/FU dGm/RT  Comp:
C1_MO2#1................ E  7.967E-01  0.00E+00  2.51E-01    3.17  0.00E+00  X:
 O      6.84489E-01  U      2.44671E-01  PU     7.08402E-02

U3O8_S4................. E  2.033E-01  0.00E+00  1.85E-02   11.00  0.00E+00  X:
 O      7.27273E-01  U      2.72727E-01  PU     0.00000E+00


----------------------------------------

[OC parser] Parsed components
  O : moles=0.69319, x=0.69319, mu/RT=-3.1019, activity=0.044961, ref=GAS
  Pu : moles=0.05644, x=0.05644, mu/RT=-62.938, activity=4.6402e-28, ref=SER (default)
  U : moles=0.25037, x=0.25037, mu/RT=-64.241, activity=1.2606e-28, ref=SER (default)

[OC parser] Parsed phases
  Phase condensed : moles=1, volume=0
    Elements
      O = 0.693187
      Pu = 0.0564384
      U = 0.250375
    Species
      C1_MO2 : moles=0.7967, volume=0
        O = 0.545332
        Pu = 0.0564384
        U = 0.194929
      U3O8_S4 : moles=0.2033, volume=0
        O = 0.147855
        Pu = 0
        U = 0.0554454
OpenCalphad attempt for 'at grain boundary' with WARM-START

[OC input] ./OCinput_fission_products.OCM
----------------------------------------
r u ./OCoutput_fission_products.OCU

set ref o gas * 100000

set c t=1733
set c p=7e+06
set c n(cs)=0.00937109
set c n(mo)=0.013186
set c n(o)=0.977443
c e
set c n(o)=none
set c mu(o)=-89388.6

c w

save u ./OCoutput_fission_products Y

l /out=./OCoutput_fission_products.DAT r 1

fin
----------------------------------------

3A unfished preparations for XTDB


Open Calphad (OC) software version   6.106 , linked 2026-04-16
with command line monitor version  73

This program is available with a GNU General Public License.
either version 2 of the License, or any later version.
It includes the General Thermodynamic Package, version GTP-3.31,
Hillert's equilibrium calculation algorithm version HMS-3.0 ,
step/map/plot software version SMP-2.30 using GNUPLOT 5.2 graphics.
Numerical routines are extracted from LAPACK and BLAS and
the assessment procedure uses LMDIF from ANL.

Linked with OpenMp for parallel execution
 Warning, no environment variable OCHOME and no help file
 Working directory is: /home/ecappellari/transparant/sciantix-official/regression/test_JOG_MOX/point_04_r_1p2mm
--->OC6:
Read unformatted file: This is a save file for OC version:     OCF-3.20
Generated:  2026.04.19 21h33

 3E reading unformatted:        16646           0           0
3E Addition type   1, Inden-Hillert magn model for BCC_A2
3E Addition type   1, Inden-Hillert magn model for FCC_A1
3E Addition type   1, Inden-Hillert magn model for HCP_A3
 3E no experimental data
 3E no coefficient values saved
 3E Read assessment record
 No coefficients allocated
--->OC6:--->OC6:--->OC6:--->OC6:--->OC6:--->OC6:--->OC6:--->OC6:--->OC6:
Error codes:   4144     0    50
Message: Degrees of freedom not zero

--->OC6:--->OC6:--->OC6:--->OC6:Equilibrium result:   9 its,  8.5300E-04 s,      1 cc, GS= -2.0097074E+04 J/mol
3Y Testing if any gridpoint is below the calculated equilibrium
--->OC6:--->OC6:
Overwriting previous results on ./OCoutput_fission_products.OCU
3E allocating workspace:     123330          (   3330,   10000,    2)
 3E saving            3  symbols as texts
 3E used        12291  words out of       123330  for storing static data
 ceqrecsize not implemented          40
 3E Saving an equilibrium record requires     4302       0 words
 3E not storing unused equilibria from:            2
 3E Saving assessment record
 3E No experimental equilibrium range set
 3E allocating assessment head record          48
 3E no coefficients allocated
 3E no work array (assrec%wopt) allocated
Used    16681 words out of   123330,  13.53% for unformatted memory save
Written workspace      66724 bytes unformatted on ./OCoutput_fission_products.OCU
--->OC6:--->OC6:Output on file: ./OCoutput_fission_products.DAT
Output unit reset to screen:    6
--->OC6:--->OC6:
[OC output] ./OCoutput_fission_products.DAT
----------------------------------------

%%%%%%%%%% OC output written: 2026-04-19  21h33

Output for equilibrium:   1, DEFAULT_EQUILIBRIUM          2026.04.19
Conditions .................................................:
  1:T=1733, 2:P=7000000, 3:N(CS)=.00937109, 4:N(MO)=.013186, 5:MU(O)=-89388.6
 Degrees of freedom are   0

Some global data, reference state SER ......................:
T=   1733.00 K (  1459.85 C), P=  7.0000E+06 Pa, V=  0.0000E+00 m3
N=   6.6801E-02 moles, B=   3.2184E+00 g, RT=   1.4409E+04 J/mol
G= -2.00971E+04 J, G/N=-3.0085E+05 J/mol, H=-1.0535E+04 J, S= 5.518E+00 J/K

Some data for components ...................................:
Component name    Moles      Mole-fr  Chem.pot/RT  Activities  Ref.state
CS                9.3711E-03  0.14028 -3.3054E+01  4.4127E-15  SER (default)   
MO                1.3186E-02  0.19739 -2.1178E+01  6.3466E-10  SER (default)   
O                 4.4244E-02  0.66232 -6.2036E+00  2.0220E-03  GAS             

Some data for phases .......................................:
Name                Status Moles      Volume    Form.Units Cmp/FU dGm/RT  Comp:
LIQUID#1................ E  6.680E-02  0.00E+00  1.32E-02    5.07  0.00E+00  X:
 O      6.62323E-01  MO     1.97393E-01  CS     1.40284E-01


----------------------------------------

[OC parser] Parsed components
  Cs : moles=0.0093711, x=0.14028, mu/RT=-33.054, activity=4.4127e-15, ref=SER (default)
  Mo : moles=0.013186, x=0.19739, mu/RT=-21.178, activity=6.3466e-10, ref=SER (default)
  O : moles=0.044244, x=0.66232, mu/RT=-6.2036, activity=0.002022, ref=GAS

[OC parser] Parsed phases
  Phase liquid : moles=0.0668, volume=0
    Elements
      Cs = 0.00937097
      Mo = 0.0131859
      O = 0.0442432
Using current directory.
STOP Au revoir
STOP Au revoir
STOP Au revoir
Note: The following floating-point exceptions are signalling: IEEE_DENORMAL
STOP Au revoir
STOP Au revoir
STOP Au revoir
STOP Au revoir
STOP Au revoir
STOP Au revoir
STOP Au revoir
STOP Au revoir
STOP Au revoir
STOP Au revoir
STOP Au revoir
STOP Au revoir
STOP Au revoir
STOP Au revoir
STOP Au revoir
STOP Au revoir
STOP Au revoir
STOP Au revoir
STOP Au revoir
STOP Au revoir
STOP Au revoir
STOP Au revoir
STOP Au revoir
STOP Au revoir
STOP Au revoir
STOP Au revoir
STOP Au revoir
STOP Au revoir
STOP Au revoir
STOP Au revoir
STOP Au revoir
STOP Au revoir
STOP Au revoir
STOP Au revoir
STOP Au revoir
STOP Au revoir
STOP Au revoir
STOP Au revoir
STOP Au revoir
STOP Au revoir
STOP Au revoir
STOP Au revoir
STOP Au revoir
STOP Au revoir
STOP Au revoir
STOP Au revoir
STOP Au revoir
STOP Au revoir
STOP Au revoir
STOP Au revoir
STOP Au revoir
STOP Au revoir
STOP Au revoir
STOP Au revoir
STOP Au revoir
STOP Au revoir
STOP Au revoir
STOP Au revoir
STOP Au revoir
STOP Au revoir
STOP Au revoir
STOP Au revoir
STOP Au revoir
STOP Au revoir
STOP Au revoir
STOP Au revoir
STOP Au revoir
STOP Au revoir
STOP Au revoir
STOP Au revoir
STOP Au revoir
STOP Au revoir
STOP Au revoir
STOP Au revoir
STOP Au revoir
STOP Au revoir
STOP Au revoir
STOP Au revoir
STOP Au revoir
STOP Au revoir
STOP Au revoir
STOP Au revoir
STOP Au revoir
STOP Au revoir
STOP Au revoir
STOP Au revoir
STOP Au revoir
STOP Au revoir
STOP Au revoir
STOP Au revoir
STOP Au revoir
STOP Au revoir
STOP Au revoir
STOP Au revoir
STOP Au revoir
STOP Au revoir
STOP Au revoir
STOP Au revoir
STOP Au revoir
STOP Au revoir
STOP Au revoir
STOP Au revoir
STOP Au revoir
STOP Au revoir
STOP Au revoir
STOP Au revoir
STOP Au revoir
STOP Au revoir
STOP Au revoir
STOP Au revoir
STOP Au revoir
STOP Au revoir
STOP Au revoir
STOP Au revoir
STOP Au revoir
STOP Au revoir
STOP Au revoir
STOP Au revoir
STOP Au revoir
STOP Au revoir
STOP Au revoir
STOP Au revoir
STOP Au revoir
STOP Au revoir
STOP Au revoir
STOP Au revoir
STOP Au revoir
STOP Au revoir
STOP Au revoir
STOP Au revoir
STOP Au revoir
STOP Au revoir
STOP Au revoir
STOP Au revoir
STOP Au revoir
STOP Au revoir
STOP Au revoir
STOP Au revoir
STOP Au revoir
STOP Au revoir
STOP Au revoir
STOP Au revoir
STOP Au revoir
STOP Au revoir
STOP Au revoir
STOP Au revoir
STOP Au revoir
STOP Au revoir
STOP Au revoir
STOP Au revoir
STOP Au revoir
STOP Au revoir
STOP Au revoir
STOP Au revoir
STOP Au revoir
STOP Au revoir
STOP Au revoir
STOP Au revoir
STOP Au revoir
STOP Au revoir
STOP Au revoir
STOP Au revoir
STOP Au revoir
STOP Au revoir
STOP Au revoir
STOP Au revoir
STOP Au revoir
STOP Au revoir
STOP Au revoir
STOP Au revoir
STOP Au revoir
STOP Au revoir
STOP Au revoir
STOP Au revoir
STOP Au revoir
STOP Au revoir
STOP Au revoir
STOP Au revoir
STOP Au revoir
STOP Au revoir
STOP Au revoir
STOP Au revoir
STOP Au revoir
STOP Au revoir
STOP Au revoir
STOP Au revoir
STOP Au revoir
STOP Au revoir
STOP Au revoir
STOP Au revoir
STOP Au revoir
STOP Au revoir
STOP Au revoir
STOP Au revoir
STOP Au revoir
STOP Au revoir
STOP Au revoir
STOP Au revoir
STOP Au revoir
STOP Au revoir
STOP Au revoir
