Use ./sciantix.x ../input_path/ in the working directory
OpenCalphad attempt for 'matrix' with WARM-START

[OC input] ./OCinput_matrix.OCM
----------------------------------------
@$ Initialize variables:
r t /home/ecappellari/transparant/opencalphad/data/O-Pu-UPaper o pu u

set ref o gas * 100000

set c t=1836
set c p=200000
set c n(o)=0.663866
set c n(pu)=0.0963509
set c n(u)=0.239784
c e
c w

save u ./OCoutput_matrix Y

l /out=./OCoutput_matrix.DAT r 1

fin
----------------------------------------

3A unfished preparations for XTDB


Open Calphad (OC) software version   6.106 , linked 2026-04-16
with command line monitor version  73

This program is available with a GNU General Public License.
either version 2 of the License, or any later version.
It includes the General Thermodynamic Package, version GTP-3.31,
Hillert's equilibrium calculation algorithm version HMS-3.0 ,
step/map/plot software version SMP-2.30 using GNUPLOT 5.2 graphics.
Numerical routines are extracted from LAPACK and BLAS and
the assessment procedure uses LMDIF from ANL.

Linked with OpenMp for parallel execution
 Warning, no environment variable OCHOME and no help file
 Working directory is: /home/ecappellari/transparant/sciantix-official/regression/test_JOG_MOX/point_02_r_0p7mm
--->OC6:--->OC6: 3E Database file extention is: ".tdb"

This database has information to users, please read carefully
Database modified by Pauline Fouquet-Metivier et al, Calphad (2022)
Only for the liquid phase of Pu-O and U-Pu-O systems

 ELEMENT /-   ELECTRON_GAS              0.0000E+00  0.0000E+00  0.0000E+00!

Database has  5 elements: O  PU U  AR N 
Give the elements to select, finish with empty line
Selected  3 elements: O  PU U 
Select elements /no more/:Selected  3 elements: O  PU U 
3E reading database file: /home/ecappellari/transparant/opencalphad/data/O-Pu-UPaper.TDB
 3B insering interaction before existing F

Out of   115 model parameters   108 have been entered


There are    17 bibliographic references
REF161          '*** Not set by database or user'
REF178          '*** Not set by database or user'
REF175          '*** Not set by database or user'
REF176          '*** Not set by database or user'
REF177          '*** Not set by database or user'
REF203          'O1PU1<G> T.C.R.A.S. Class: 6, from SSUB, id to Tbase'
REF204          'O2PU1<G> T.C.R.A.S. Class: 7 PLUTONIUM DIOXIDE <GAS>, from 
                 SSUB, id to Tbase'
REF209          'O1U1<G> T.C.R.A.S Class: 6 Data provided by T.C.R.A.S. in 
                 2000, from SSUB, different of Tbase'
REF210          'O2U1<G> T.C.R.A.S. Class: 6 URANIUM DIOXIDE <GAS>, from 
                 SSUB, slightly different of Tbase'
REF211          'O3U1<G> T.C.R.A.S Class: 6 Data provided by T.C.R.A.S. in 
                 2000, from SSUB, different of Tbase'
REF10           'A T Dinsdale, SGTE Data for Pure Elements, Calphad 15(1991)4 
                 p 317-425; also in NPL Report DMA(A)195 Rev. August 1990'
FOUQ            'P. Fouquet-Metivier et al, Calphad (2022)'
REF412          'C. Gueneau, N. Dupin, B. Sundman, C. Martial, J.-C. Dumas, 
                 S. Gosse, S. Chatain, F. De Bruycker, D. Manara, R.J.M. 
                 Konings, J. Nucl. Mat. 419 (1-3), 145-167 (2011); C-O-Pu-U'
REF37           'M. Kurata, Calphad, 23 (3-4), 305-337 1999'
REF115          '*** Not set by database or user'
REF92           'N. Dupin, Contrat CEA 4000294936/P5B73 Np-Pu Fuelbase, 
                 february REF115'
REF137          '*** Not set by database or user'

--->OC6:--->OC6:--->OC6:--->OC6:--->OC6:--->OC6:--->OC6:--->OC6:3Y Removed  1 gridpoints by merging
 3Y Composition set(s) created:            1
Gridmin:    7483 points   9.25E-03 s and       8 clockcycles, T= 1836.00
 3Y leaving global_gridmin
Phase change iteration:     4  -C1_MO2_AUTO#2
Equilibrium result:  17 its,  1.0088E-02 s,     10 cc, GS= -4.5819698E+05 J/mol
--->OC6:Equilibrium result:  11 its,  4.5300E-04 s,      0 cc, GS= -4.5819698E+05 J/mol
3Y Testing if any gridpoint is below the calculated equilibrium
--->OC6:--->OC6:3E allocating workspace:     122160          (   2160,   10000,    2)
 3E saving            3  symbols as texts
 3E used        12117  words out of       122160  for storing static data
 ceqrecsize not implemented          26
 3E Saving an equilibrium record requires     2854       0 words
 3E not storing unused equilibria from:            2
 3E Saving assessment record
 3E No experimental equilibrium range set
 3E allocating assessment head record          48
 3E no coefficients allocated
 3E no work array (assrec%wopt) allocated
Used    15059 words out of   122160,  12.33% for unformatted memory save
Written workspace      60236 bytes unformatted on ./OCoutput_matrix.OCU
--->OC6:--->OC6:Output on file: ./OCoutput_matrix.DAT
Output unit reset to screen:    6
--->OC6:--->OC6:
[OC output] ./OCoutput_matrix.DAT
----------------------------------------

%%%%%%%%%% OC output written: 2026-04-20  09h52

Output for equilibrium:   1, DEFAULT_EQUILIBRIUM          2026.04.20
Conditions .................................................:
  1:T=1836, 2:P=200000, 3:N(O)=0.663866, 4:N(PU)=.0963509, 5:N(U)=0.239784
 Degrees of freedom are   0

Some global data, reference state SER ......................:
T=   1836.00 K (  1562.85 C), P=  2.0000E+05 Pa, V=  0.0000E+00 m3
N=   1.0000E+00 moles, B=   9.1212E+01 g, RT=   1.5265E+04 J/mol
G= -4.58197E+05 J, G/N=-4.5820E+05 J/mol, H=-3.1565E+05 J, S= 7.764E+01 J/K

Some data for components ...................................:
Component name    Moles      Mole-fr  Chem.pot/RT  Activities  Ref.state
O                 6.6387E-01  0.66387 -1.4072E+01  7.7389E-07  GAS             
PU                9.6351E-02  0.09635 -3.3995E+01  1.7220E-15  SER (default)   
U                 2.3978E-01  0.23978 -3.4115E+01  1.5275E-15  SER (default)   

Some data for phases .......................................:
Name                Status Moles      Volume    Form.Units Cmp/FU dGm/RT  Comp:
C1_MO2#1................ E  1.000E+00  0.00E+00  3.36E-01    2.97  0.00E+00  X:
 O      6.63865E-01  U      2.39784E-01  PU     9.63508E-02


----------------------------------------

[OC parser] Parsed components
  O : moles=0.66387, x=0.66387, mu/RT=-14.072, activity=7.7389e-07, ref=GAS
  Pu : moles=0.096351, x=0.09635, mu/RT=-33.995, activity=1.722e-15, ref=SER (default)
  U : moles=0.23978, x=0.23978, mu/RT=-34.115, activity=1.5275e-15, ref=SER (default)

[OC parser] Parsed phases
  Phase condensed : moles=1, volume=0
    Elements
      O = 1.97168
      Pu = 0.286162
      U = 0.712158
    Species
      C1_MO2 : moles=1, volume=0
        O = 1.97168
        Pu = 0.286162
        U = 0.712158
[Thermochemistry] C1_MO2 (condensed, matrix) composition=O:1.9716791,Pu:0.28616188,U:0.71215848 molar_mass=269.467 g/mol
OpenCalphad attempt for 'matrix' with WARM-START

[OC input] ./OCinput_matrix.OCM
----------------------------------------
r u ./OCoutput_matrix.OCU

set ref o gas * 100000

set c t=1836
set c p=268000
set c n(o)=0.664146
set c n(pu)=0.0959685
set c n(u)=0.239885
c e
c w

save u ./OCoutput_matrix Y

l /out=./OCoutput_matrix.DAT r 1

fin
----------------------------------------

3A unfished preparations for XTDB


Open Calphad (OC) software version   6.106 , linked 2026-04-16
with command line monitor version  73

This program is available with a GNU General Public License.
either version 2 of the License, or any later version.
It includes the General Thermodynamic Package, version GTP-3.31,
Hillert's equilibrium calculation algorithm version HMS-3.0 ,
step/map/plot software version SMP-2.30 using GNUPLOT 5.2 graphics.
Numerical routines are extracted from LAPACK and BLAS and
the assessment procedure uses LMDIF from ANL.

Linked with OpenMp for parallel execution
 Warning, no environment variable OCHOME and no help file
 Working directory is: /home/ecappellari/transparant/sciantix-official/regression/test_JOG_MOX/point_02_r_0p7mm
--->OC6:
Read unformatted file: This is a save file for OC version:     OCF-3.20
Generated:  2026.04.20 09h52

 3E reading unformatted:        15024           0           0
3E Addition type   1, Inden-Hillert magn model for BCC_A2
3E Addition type   1, Inden-Hillert magn model for FCC_A1
 3E no experimental data
 3E no coefficient values saved
 3E Read assessment record
 No coefficients allocated
--->OC6:--->OC6:--->OC6:--->OC6:--->OC6:--->OC6:--->OC6:--->OC6:--->OC6:3Y Removed  1 gridpoints by merging
Gridmin:    7483 points   9.43E-03 s and       8 clockcycles, T= 1836.00
 3Y leaving global_gridmin
Phase change iteration:     4  -C1_MO2_AUTO#2
Equilibrium result:  17 its,  1.0351E-02 s,     10 cc, GS= -4.5816960E+05 J/mol
--->OC6:Equilibrium result:  14 its,  5.8200E-04 s,      1 cc, GS= -4.5816960E+05 J/mol
3Y Testing if any gridpoint is below the calculated equilibrium
--->OC6:--->OC6:
Overwriting previous results on ./OCoutput_matrix.OCU
3E allocating workspace:     122160          (   2160,   10000,    2)
 3E saving            3  symbols as texts
 3E used        12117  words out of       122160  for storing static data
 ceqrecsize not implemented          26
 3E Saving an equilibrium record requires     2854       0 words
 3E not storing unused equilibria from:            2
 3E Saving assessment record
 3E No experimental equilibrium range set
 3E allocating assessment head record          48
 3E no coefficients allocated
 3E no work array (assrec%wopt) allocated
Used    15059 words out of   122160,  12.33% for unformatted memory save
Written workspace      60236 bytes unformatted on ./OCoutput_matrix.OCU
--->OC6:--->OC6:Output on file: ./OCoutput_matrix.DAT
Output unit reset to screen:    6
--->OC6:--->OC6:
[OC output] ./OCoutput_matrix.DAT
----------------------------------------

%%%%%%%%%% OC output written: 2026-04-20  09h52

Output for equilibrium:   1, DEFAULT_EQUILIBRIUM          2026.04.20
Conditions .................................................:
  1:T=1836, 2:P=268000, 3:N(O)=0.664146, 4:N(PU)=.0959685, 5:N(U)=0.239885
 Degrees of freedom are   0

Some global data, reference state SER ......................:
T=   1836.00 K (  1562.85 C), P=  2.6800E+05 Pa, V=  0.0000E+00 m3
N=   1.0000E+00 moles, B=   9.1148E+01 g, RT=   1.5265E+04 J/mol
G= -4.58170E+05 J, G/N=-4.5817E+05 J/mol, H=-3.1574E+05 J, S= 7.758E+01 J/K

Some data for components ...................................:
Component name    Moles      Mole-fr  Chem.pot/RT  Activities  Ref.state
O                 6.6415E-01  0.66415 -1.4052E+01  7.8972E-07  GAS             
PU                9.5969E-02  0.09597 -3.4316E+01  1.2499E-15  SER (default)   
U                 2.3988E-01  0.23989 -3.4448E+01  1.0952E-15  SER (default)   

Some data for phases .......................................:
Name                Status Moles      Volume    Form.Units Cmp/FU dGm/RT  Comp:
C1_MO2#1................ E  1.000E+00  0.00E+00  3.36E-01    2.98  0.00E+00  X:
 O      6.64146E-01  U      2.39885E-01  PU     9.59685E-02


----------------------------------------

[OC parser] Parsed components
  O : moles=0.66415, x=0.66415, mu/RT=-14.052, activity=7.8972e-07, ref=GAS
  Pu : moles=0.095969, x=0.09597, mu/RT=-34.316, activity=1.2499e-15, ref=SER (default)
  U : moles=0.23988, x=0.23989, mu/RT=-34.448, activity=1.0952e-15, ref=SER (default)

[OC parser] Parsed phases
  Phase condensed : moles=1, volume=0
    Elements
      O = 1.97916
      Pu = 0.285986
      U = 0.714857
    Species
      C1_MO2 : moles=1, volume=0
        O = 1.97916
        Pu = 0.285986
        U = 0.714857
OpenCalphad attempt for 'matrix' with WARM-START

[OC input] ./OCinput_matrix.OCM
----------------------------------------
r u ./OCoutput_matrix.OCU

set ref o gas * 100000

set c t=1836
set c p=336000
set c n(o)=0.664428
set c n(pu)=0.0955858
set c n(u)=0.239987
c e
c w

save u ./OCoutput_matrix Y

l /out=./OCoutput_matrix.DAT r 1

fin
----------------------------------------

3A unfished preparations for XTDB


Open Calphad (OC) software version   6.106 , linked 2026-04-16
with command line monitor version  73

This program is available with a GNU General Public License.
either version 2 of the License, or any later version.
It includes the General Thermodynamic Package, version GTP-3.31,
Hillert's equilibrium calculation algorithm version HMS-3.0 ,
step/map/plot software version SMP-2.30 using GNUPLOT 5.2 graphics.
Numerical routines are extracted from LAPACK and BLAS and
the assessment procedure uses LMDIF from ANL.

Linked with OpenMp for parallel execution
 Warning, no environment variable OCHOME and no help file
 Working directory is: /home/ecappellari/transparant/sciantix-official/regression/test_JOG_MOX/point_02_r_0p7mm
--->OC6:
Read unformatted file: This is a save file for OC version:     OCF-3.20
Generated:  2026.04.20 09h52

 3E reading unformatted:        15024           0           0
3E Addition type   1, Inden-Hillert magn model for BCC_A2
3E Addition type   1, Inden-Hillert magn model for FCC_A1
 3E no experimental data
 3E no coefficient values saved
 3E Read assessment record
 No coefficients allocated
--->OC6:--->OC6:--->OC6:--->OC6:--->OC6:--->OC6:--->OC6:--->OC6:--->OC6:3Y Removed  1 gridpoints by merging
Gridmin:    7483 points   8.23E-03 s and       7 clockcycles, T= 1836.00
 3Y leaving global_gridmin
Phase change iteration:     4  -C1_MO2_AUTO#2
Equilibrium result:  17 its,  8.9500E-03 s,      9 cc, GS= -4.5814130E+05 J/mol
--->OC6:Equilibrium result:   9 its,  3.3900E-04 s,      0 cc, GS= -4.5814130E+05 J/mol
3Y Testing if any gridpoint is below the calculated equilibrium
--->OC6:--->OC6:
Overwriting previous results on ./OCoutput_matrix.OCU
3E allocating workspace:     122160          (   2160,   10000,    2)
 3E saving            3  symbols as texts
 3E used        12117  words out of       122160  for storing static data
 ceqrecsize not implemented          26
 3E Saving an equilibrium record requires     2854       0 words
 3E not storing unused equilibria from:            2
 3E Saving assessment record
 3E No experimental equilibrium range set
 3E allocating assessment head record          48
 3E no coefficients allocated
 3E no work array (assrec%wopt) allocated
Used    15059 words out of   122160,  12.33% for unformatted memory save
Written workspace      60236 bytes unformatted on ./OCoutput_matrix.OCU
--->OC6:--->OC6:Output on file: ./OCoutput_matrix.DAT
Output unit reset to screen:    6
--->OC6:--->OC6:
[OC output] ./OCoutput_matrix.DAT
----------------------------------------

%%%%%%%%%% OC output written: 2026-04-20  09h52

Output for equilibrium:   1, DEFAULT_EQUILIBRIUM          2026.04.20
Conditions .................................................:
  1:T=1836, 2:P=336000, 3:N(O)=0.664428, 4:N(PU)=.0955858, 5:N(U)=0.239987
 Degrees of freedom are   0

Some global data, reference state SER ......................:
T=   1836.00 K (  1562.85 C), P=  3.3600E+05 Pa, V=  0.0000E+00 m3
N=   1.0000E+00 moles, B=   9.1083E+01 g, RT=   1.5265E+04 J/mol
G= -4.58141E+05 J, G/N=-4.5814E+05 J/mol, H=-3.1582E+05 J, S= 7.752E+01 J/K

Some data for components ...................................:
Component name    Moles      Mole-fr  Chem.pot/RT  Activities  Ref.state
O                 6.6443E-01  0.66443 -1.3986E+01  8.4357E-07  GAS             
PU                9.5586E-02  0.09559 -3.4661E+01  8.8494E-16  SER (default)   
U                 2.3999E-01  0.23999 -3.4806E+01  7.6573E-16  SER (default)   

Some data for phases .......................................:
Name                Status Moles      Volume    Form.Units Cmp/FU dGm/RT  Comp:
C1_MO2#1................ E  1.000E+00  0.00E+00  3.36E-01    2.98  0.00E+00  X:
 O      6.64427E-01  U      2.39987E-01  PU     9.55857E-02


----------------------------------------

[OC parser] Parsed components
  O : moles=0.66443, x=0.66443, mu/RT=-13.986, activity=8.4357e-07, ref=GAS
  Pu : moles=0.095586, x=0.09559, mu/RT=-34.661, activity=8.8494e-16, ref=SER (default)
  U : moles=0.23999, x=0.23999, mu/RT=-34.806, activity=7.6573e-16, ref=SER (default)

[OC parser] Parsed phases
  Phase condensed : moles=1, volume=0
    Elements
      O = 1.97999
      Pu = 0.284845
      U = 0.715161
    Species
      C1_MO2 : moles=1, volume=0
        O = 1.97999
        Pu = 0.284845
        U = 0.715161
OpenCalphad attempt for 'at grain boundary' with WARM-START

[OC input] ./OCinput_fission_products.OCM
----------------------------------------
@$ Initialize variables:
r t /home/ecappellari/transparant/opencalphad/data/CsMoO_TAFID_2021_Anna cs mo o

set ref o gas * 100000

set c t=1836
set c p=336000
set c n(cs)=5.81789e-05
set c n(mo)=0.000143215
set c n(o)=0.999799
c e
set c n(o)=none
set c mu(o)=-426994

c w

save u ./OCoutput_fission_products Y

l /out=./OCoutput_fission_products.DAT r 1

fin
----------------------------------------

3A unfished preparations for XTDB


Open Calphad (OC) software version   6.106 , linked 2026-04-16
with command line monitor version  73

This program is available with a GNU General Public License.
either version 2 of the License, or any later version.
It includes the General Thermodynamic Package, version GTP-3.31,
Hillert's equilibrium calculation algorithm version HMS-3.0 ,
step/map/plot software version SMP-2.30 using GNUPLOT 5.2 graphics.
Numerical routines are extracted from LAPACK and BLAS and
the assessment procedure uses LMDIF from ANL.

Linked with OpenMp for parallel execution
 Warning, no environment variable OCHOME and no help file
 Working directory is: /home/ecappellari/transparant/sciantix-official/regression/test_JOG_MOX/point_02_r_0p7mm
--->OC6:--->OC6: 3E Database file extention is: ".tdb"
Database has  3 elements: CS MO O 
Give the elements to select, finish with empty line
Selected  3 elements: CS MO O 
Select elements /no more/:Selected  3 elements: CS MO O 
3E reading database file: /home/ecappellari/transparant/opencalphad/data/CsMoO_TAFID_2021_Anna.TDB

Out of    82 model parameters    82 have been entered


There are     1 bibliographic references
REF0            '*** Not set by database or user'

--->OC6:--->OC6:--->OC6:--->OC6:--->OC6:--->OC6:--->OC6:--->OC6: 3Y Composition set(s) created:            1
Gridmin:    9683 points   1.08E-02 s and      10 clockcycles, T= 1836.00
 3Y leaving global_gridmin
Phase change iteration:     4  -LIQUID_AUTO#2
Phase change iteration:    15  -LIQUID#1
Equilibrium result:  38 its,  1.2236E-02 s,     12 cc, GS= -2.0806482E+05 J/mol
--->OC6:--->OC6:--->OC6:--->OC6:Phase change iteration:     4  +BCC_A2
Equilibrium result:  21 its,  8.8000E-04 s,      1 cc, GS= -2.9775796E+01 J/mol
3Y Testing if any gridpoint is below the calculated equilibrium
--->OC6:--->OC6:3E allocating workspace:     123330          (   3330,   10000,    2)
 3E saving            3  symbols as texts
 3E used        12286  words out of       123330  for storing static data
 ceqrecsize not implemented          39
 3E Saving an equilibrium record requires     4188       0 words
 3E not storing unused equilibria from:            2
 3E Saving assessment record
 3E No experimental equilibrium range set
 3E allocating assessment head record          48
 3E no coefficients allocated
 3E no work array (assrec%wopt) allocated
Used    16562 words out of   123330,  13.43% for unformatted memory save
Written workspace      66248 bytes unformatted on ./OCoutput_fission_products.OCU
--->OC6:--->OC6:Output on file: ./OCoutput_fission_products.DAT
Output unit reset to screen:    6
--->OC6:--->OC6:
[OC output] ./OCoutput_fission_products.DAT
----------------------------------------

%%%%%%%%%% OC output written: 2026-04-20  09h52

Output for equilibrium:   1, DEFAULT_EQUILIBRIUM          2026.04.20
Conditions .................................................:
  1:T=1836, 2:P=336000, 3:N(CS)=5.81789E-05, 4:N(MO)=.000143215, 5:MU(O)=
    -426994
 Degrees of freedom are   0

Some global data, reference state SER ......................:
T=   1836.00 K (  1562.85 C), P=  3.3600E+05 Pa, V=  2.6037E-06 m3
N=   2.0139E-04 moles, B=   2.1473E-02 g, RT=   1.5265E+04 J/mol
G= -2.97758E+01 J, G/N=-1.4785E+05 J/mol, H= 1.2670E+01 J, S= 2.312E-02 J/K

Some data for components ...................................:
Component name    Moles      Mole-fr  Chem.pot/RT  Activities  Ref.state
CS                5.8179E-05  0.28888 -1.7359E+01  2.8899E-08  SER (default)   
MO                1.4322E-04  0.71112 -6.5676E+00  1.4051E-03  SER (default)   
O                 8.5164E-15  0.00000 -2.7971E+01  7.1158E-13  GAS             

Some data for phases .......................................:
Name                Status Moles      Volume    Form.Units Cmp/FU dGm/RT  Comp:
GAS..................... E  5.800E-05  2.60E-06  5.73E-05    1.01  0.00E+00  X:
 CS     1.00000E+00  O      1.38682E-10  MO     2.99022E-12
Constitution: There are    18 constituents:
 CS           9.87983E-01  MOO          1.09966E-17  MOO3         8.57781E-30
 CS2          1.20167E-02  MO2          4.76267E-18  MO4O12       1.00000E-30
 CS2O         1.39448E-10  MOO2         6.62763E-23  MO3O9        1.00000E-30
 MO           3.02613E-12  CS2O2        1.37025E-23  MO2O6        1.00000E-30
 CSO          9.00466E-13  O2           5.06349E-25  O3           1.00000E-30
 O            6.59582E-17  CS2MOO4      4.05008E-27  MO5O15       1.00000E-30

BCC_A2.................. E  1.434E-04  0.00E+00  1.43E-04    1.00  0.00E+00  X:
 MO     9.98733E-01  CS     1.26688E-03  O      3.30033E-12


----------------------------------------

[OC parser] Parsed components
  Cs : moles=5.8179e-05, x=0.28888, mu/RT=-17.359, activity=2.8899e-08, ref=SER (default)
  Mo : moles=0.00014322, x=0.71112, mu/RT=-6.5676, activity=0.0014051, ref=SER (default)
  O : moles=8.5164e-15, x=0, mu/RT=-27.971, activity=7.1158e-13, ref=GAS

[OC parser] Parsed phases
  Phase condensed : moles=0.0001434, volume=0
    Elements
      Cs = 1.81671e-07
      Mo = 0.000143218
      O = 4.73267e-16
    Species
      BCC_A2 : moles=0.0001434, volume=0
        Cs = 1.81671e-07
        Mo = 0.000143218
        O = 4.73267e-16
  Phase gas : moles=5.8e-05, volume=2.6e-06
    Elements
      Cs = 5.8e-05
      Mo = 1.73433e-16
      O = 8.04356e-15
    Species
      CS : moles=5.7303e-05, volume=0
      CS2 : moles=6.96969e-07, volume=0
      CS2MOO4 : moles=2.34905e-31, volume=0
      CS2O : moles=8.08798e-15, volume=0
      CS2O2 : moles=7.94745e-28, volume=0
      CSO : moles=5.2227e-17, volume=0
      MO : moles=1.75516e-16, volume=0
      MO2 : moles=2.76235e-22, volume=0
      MO2O6 : moles=5.8e-35, volume=0
      MO3O9 : moles=5.8e-35, volume=0
      MO4O12 : moles=5.8e-35, volume=0
      MO5O15 : moles=5.8e-35, volume=0
      MOO : moles=6.37803e-22, volume=0
      MOO2 : moles=3.84403e-27, volume=0
      MOO3 : moles=4.97513e-34, volume=0
      O : moles=3.82558e-21, volume=0
      O2 : moles=2.93682e-29, volume=0
      O3 : moles=5.8e-35, volume=0
      are : moles=0.001044, volume=0
[Thermochemistry] BCC_A2 (condensed, at grain boundary) composition=Cs:0.00126688,Mo:0.998733,O:3.30033e-12 molar_mass=95.9968 g/mol
[Thermochemistry] CS (gas, at grain boundary) composition=<empty> molar_mass=0 g/mol
[Thermochemistry] CS2 (gas, at grain boundary) composition=<empty> molar_mass=0 g/mol
[Thermochemistry] CS2MOO4 (gas, at grain boundary) composition=<empty> molar_mass=0 g/mol
[Thermochemistry] CS2O (gas, at grain boundary) composition=<empty> molar_mass=0 g/mol
[Thermochemistry] CS2O2 (gas, at grain boundary) composition=<empty> molar_mass=0 g/mol
[Thermochemistry] CSO (gas, at grain boundary) composition=<empty> molar_mass=0 g/mol
[Thermochemistry] MO (gas, at grain boundary) composition=<empty> molar_mass=0 g/mol
[Thermochemistry] MO2 (gas, at grain boundary) composition=<empty> molar_mass=0 g/mol
[Thermochemistry] MO2O6 (gas, at grain boundary) composition=<empty> molar_mass=0 g/mol
[Thermochemistry] MO3O9 (gas, at grain boundary) composition=<empty> molar_mass=0 g/mol
[Thermochemistry] MO4O12 (gas, at grain boundary) composition=<empty> molar_mass=0 g/mol
[Thermochemistry] MO5O15 (gas, at grain boundary) composition=<empty> molar_mass=0 g/mol
[Thermochemistry] MOO (gas, at grain boundary) composition=<empty> molar_mass=0 g/mol
[Thermochemistry] MOO2 (gas, at grain boundary) composition=<empty> molar_mass=0 g/mol
[Thermochemistry] MOO3 (gas, at grain boundary) composition=<empty> molar_mass=0 g/mol
[Thermochemistry] O (gas, at grain boundary) composition=<empty> molar_mass=0 g/mol
[Thermochemistry] O2 (gas, at grain boundary) composition=<empty> molar_mass=0 g/mol
[Thermochemistry] O3 (gas, at grain boundary) composition=<empty> molar_mass=0 g/mol
OpenCalphad attempt for 'matrix' with WARM-START

[OC input] ./OCinput_matrix.OCM
----------------------------------------
r u ./OCoutput_matrix.OCU

set ref o gas * 100000

set c t=1836
set c p=404000
set c n(o)=0.664709
set c n(pu)=0.0952027
set c n(u)=0.240088
c e
c w

save u ./OCoutput_matrix Y

l /out=./OCoutput_matrix.DAT r 1

fin
----------------------------------------

3A unfished preparations for XTDB


Open Calphad (OC) software version   6.106 , linked 2026-04-16
with command line monitor version  73

This program is available with a GNU General Public License.
either version 2 of the License, or any later version.
It includes the General Thermodynamic Package, version GTP-3.31,
Hillert's equilibrium calculation algorithm version HMS-3.0 ,
step/map/plot software version SMP-2.30 using GNUPLOT 5.2 graphics.
Numerical routines are extracted from LAPACK and BLAS and
the assessment procedure uses LMDIF from ANL.

Linked with OpenMp for parallel execution
 Warning, no environment variable OCHOME and no help file
 Working directory is: /home/ecappellari/transparant/sciantix-official/regression/test_JOG_MOX/point_02_r_0p7mm
--->OC6:
Read unformatted file: This is a save file for OC version:     OCF-3.20
Generated:  2026.04.20 09h52

 3E reading unformatted:        15024           0           0
3E Addition type   1, Inden-Hillert magn model for BCC_A2
3E Addition type   1, Inden-Hillert magn model for FCC_A1
 3E no experimental data
 3E no coefficient values saved
 3E Read assessment record
 No coefficients allocated
--->OC6:--->OC6:--->OC6:--->OC6:--->OC6:--->OC6:--->OC6:--->OC6:--->OC6:3Y Removed  1 gridpoints by merging
Gridmin:    7483 points   8.79E-03 s and       7 clockcycles, T= 1836.00
 3Y leaving global_gridmin
Phase change iteration:     4  -C1_MO2_AUTO#2
Equilibrium result:  17 its,  9.5630E-03 s,      9 cc, GS= -4.5810949E+05 J/mol
--->OC6:Equilibrium result:  11 its,  4.3400E-04 s,      1 cc, GS= -4.5810949E+05 J/mol
3Y Testing if any gridpoint is below the calculated equilibrium
--->OC6:--->OC6:
Overwriting previous results on ./OCoutput_matrix.OCU
3E allocating workspace:     122160          (   2160,   10000,    2)
 3E saving            3  symbols as texts
 3E used        12117  words out of       122160  for storing static data
 ceqrecsize not implemented          26
 3E Saving an equilibrium record requires     2854       0 words
 3E not storing unused equilibria from:            2
 3E Saving assessment record
 3E No experimental equilibrium range set
 3E allocating assessment head record          48
 3E no coefficients allocated
 3E no work array (assrec%wopt) allocated
Used    15059 words out of   122160,  12.33% for unformatted memory save
Written workspace      60236 bytes unformatted on ./OCoutput_matrix.OCU
--->OC6:--->OC6:Output on file: ./OCoutput_matrix.DAT
Output unit reset to screen:    6
--->OC6:--->OC6:
[OC output] ./OCoutput_matrix.DAT
----------------------------------------

%%%%%%%%%% OC output written: 2026-04-20  09h52

Output for equilibrium:   1, DEFAULT_EQUILIBRIUM          2026.04.20
Conditions .................................................:
  1:T=1836, 2:P=404000, 3:N(O)=0.664709, 4:N(PU)=.0952027, 5:N(U)=0.240088
 Degrees of freedom are   0

Some global data, reference state SER ......................:
T=   1836.00 K (  1562.85 C), P=  4.0400E+05 Pa, V=  0.0000E+00 m3
N=   1.0000E+00 moles, B=   9.1018E+01 g, RT=   1.5265E+04 J/mol
G= -4.58109E+05 J, G/N=-4.5811E+05 J/mol, H=-3.1590E+05 J, S= 7.746E+01 J/K

Some data for components ...................................:
Component name    Moles      Mole-fr  Chem.pot/RT  Activities  Ref.state
O                 6.6471E-01  0.66471 -1.3883E+01  9.3499E-07  GAS             
PU                9.5203E-02  0.09520 -3.5038E+01  6.0688E-16  SER (default)   
U                 2.4009E-01  0.24009 -3.5196E+01  5.1839E-16  SER (default)   

Some data for phases .......................................:
Name                Status Moles      Volume    Form.Units Cmp/FU dGm/RT  Comp:
C1_MO2#1................ E  1.000E+00  0.00E+00  3.35E-01    2.98  0.00E+00  X:
 O      6.64709E-01  U      2.40088E-01  PU     9.52027E-02


----------------------------------------

[OC parser] Parsed components
  O : moles=0.66471, x=0.66471, mu/RT=-13.883, activity=9.3499e-07, ref=GAS
  Pu : moles=0.095203, x=0.0952, mu/RT=-35.038, activity=6.0688e-16, ref=SER (default)
  U : moles=0.24009, x=0.24009, mu/RT=-35.196, activity=5.1839e-16, ref=SER (default)

[OC parser] Parsed phases
  Phase condensed : moles=1, volume=0
    Elements
      O = 1.98083
      Pu = 0.283704
      U = 0.715462
    Species
      C1_MO2 : moles=1, volume=0
        O = 1.98083
        Pu = 0.283704
        U = 0.715462
OpenCalphad attempt for 'at grain boundary' with WARM-START

[OC input] ./OCinput_fission_products.OCM
----------------------------------------
r u ./OCoutput_fission_products.OCU

set ref o gas * 100000

set c t=1836
set c p=404000
set c n(cs)=5.8655e-05
set c n(mo)=0.000251195
set c n(o)=0.99969
c e
set c n(o)=none
set c mu(o)=-423850

c w

save u ./OCoutput_fission_products Y

l /out=./OCoutput_fission_products.DAT r 1

fin
----------------------------------------

3A unfished preparations for XTDB


Open Calphad (OC) software version   6.106 , linked 2026-04-16
with command line monitor version  73

This program is available with a GNU General Public License.
either version 2 of the License, or any later version.
It includes the General Thermodynamic Package, version GTP-3.31,
Hillert's equilibrium calculation algorithm version HMS-3.0 ,
step/map/plot software version SMP-2.30 using GNUPLOT 5.2 graphics.
Numerical routines are extracted from LAPACK and BLAS and
the assessment procedure uses LMDIF from ANL.

Linked with OpenMp for parallel execution
 Warning, no environment variable OCHOME and no help file
 Working directory is: /home/ecappellari/transparant/sciantix-official/regression/test_JOG_MOX/point_02_r_0p7mm
--->OC6:
Read unformatted file: This is a save file for OC version:     OCF-3.20
Generated:  2026.04.20 09h52

 3E reading unformatted:        16527           0           0
3E Addition type   1, Inden-Hillert magn model for BCC_A2
3E Addition type   1, Inden-Hillert magn model for FCC_A1
3E Addition type   1, Inden-Hillert magn model for HCP_A3
 3E no experimental data
 3E no coefficient values saved
 3E Read assessment record
 No coefficients allocated
--->OC6:--->OC6:--->OC6:--->OC6:--->OC6:--->OC6:--->OC6:--->OC6:--->OC6:
Error codes:   4144     0    50
Message: Degrees of freedom not zero

--->OC6:--->OC6:--->OC6:--->OC6:Equilibrium result:   9 its,  4.2300E-04 s,      1 cc, GS= -4.0565866E+01 J/mol
3Y Testing if any gridpoint is below the calculated equilibrium
--->OC6:--->OC6:
Overwriting previous results on ./OCoutput_fission_products.OCU
3E allocating workspace:     123330          (   3330,   10000,    2)
 3E saving            3  symbols as texts
 3E used        12286  words out of       123330  for storing static data
 ceqrecsize not implemented          39
 3E Saving an equilibrium record requires     4188       0 words
 3E not storing unused equilibria from:            2
 3E Saving assessment record
 3E No experimental equilibrium range set
 3E allocating assessment head record          48
 3E no coefficients allocated
 3E no work array (assrec%wopt) allocated
Used    16562 words out of   123330,  13.43% for unformatted memory save
Written workspace      66248 bytes unformatted on ./OCoutput_fission_products.OCU
--->OC6:--->OC6:Output on file: ./OCoutput_fission_products.DAT
Output unit reset to screen:    6
--->OC6:--->OC6:
[OC output] ./OCoutput_fission_products.DAT
----------------------------------------

%%%%%%%%%% OC output written: 2026-04-20  09h52

Output for equilibrium:   1, DEFAULT_EQUILIBRIUM          2026.04.20
Conditions .................................................:
  1:T=1836, 2:P=404000, 3:N(CS)=5.8655E-05, 4:N(MO)=.000251195, 5:MU(O)=
    -423850
 Degrees of freedom are   0

Some global data, reference state SER ......................:
T=   1836.00 K (  1562.85 C), P=  4.0400E+05 Pa, V=  2.1706E-06 m3
N=   3.0985E-04 moles, B=   3.1895E-02 g, RT=   1.5265E+04 J/mol
G= -4.05659E+01 J, G/N=-1.3092E+05 J/mol, H= 1.7535E+01 J, S= 3.165E-02 J/K

Some data for components ...................................:
Component name    Moles      Mole-fr  Chem.pot/RT  Activities  Ref.state
CS                5.8655E-05  0.18930 -1.7178E+01  3.4664E-08  SER (default)   
MO                2.5120E-04  0.81070 -6.5679E+00  1.4048E-03  SER (default)   
O                 1.6758E-14  0.00000 -2.7765E+01  8.7432E-13  GAS             

Some data for phases .......................................:
Name                Status Moles      Volume    Form.Units Cmp/FU dGm/RT  Comp:
GAS..................... E  5.827E-05  2.17E-06  5.74E-05    1.01  0.00E+00  X:
 CS     1.00000E+00  O      2.73330E-10  MO     2.48049E-12
Constitution: There are    18 constituents:
 CS           9.85620E-01  MOO          1.23667E-17  MOO3         1.74431E-29
 CS2          1.43797E-02  MO2          3.95903E-18  MO4O12       1.00000E-30
 CS2O         2.76032E-10  MOO2         1.00032E-22  MO3O9        1.00000E-30
 MO           2.51614E-12  CS2O2        2.97643E-23  MO2O6        1.00000E-30
 CSO          1.22843E-12  O2           7.64434E-25  O3           1.00000E-30
 O            7.39083E-17  CS2MOO4      1.59654E-26  MO5O15       1.00000E-30

BCC_A2.................. E  2.516E-04  0.00E+00  2.52E-04    1.00  0.00E+00  X:
 MO     9.98478E-01  CS     1.52216E-03  O      3.30033E-12


----------------------------------------

[OC parser] Parsed components
  Cs : moles=5.8655e-05, x=0.1893, mu/RT=-17.178, activity=3.4664e-08, ref=SER (default)
  Mo : moles=0.0002512, x=0.8107, mu/RT=-6.5679, activity=0.0014048, ref=SER (default)
  O : moles=1.6758e-14, x=0, mu/RT=-27.765, activity=8.7432e-13, ref=GAS

[OC parser] Parsed phases
  Phase condensed : moles=0.0002516, volume=0
    Elements
      Cs = 3.82975e-07
      Mo = 0.000251217
      O = 8.30363e-16
    Species
      BCC_A2 : moles=0.0002516, volume=0
        Cs = 3.82975e-07
        Mo = 0.000251217
        O = 8.30363e-16
  Phase gas : moles=5.827e-05, volume=2.17e-06
    Elements
      Cs = 5.827e-05
      Mo = 1.44538e-16
      O = 1.59269e-14
    Species
      CS : moles=5.74321e-05, volume=0
      CS2 : moles=8.37905e-07, volume=0
      CS2MOO4 : moles=9.30304e-31, volume=0
      CS2O : moles=1.60844e-14, volume=0
      CS2O2 : moles=1.73437e-27, volume=0
      CSO : moles=7.15806e-17, volume=0
      MO : moles=1.46615e-16, volume=0
      MO2 : moles=2.30693e-22, volume=0
      MO2O6 : moles=5.827e-35, volume=0
      MO3O9 : moles=5.827e-35, volume=0
      MO4O12 : moles=5.827e-35, volume=0
      MO5O15 : moles=5.827e-35, volume=0
      MOO : moles=7.20608e-22, volume=0
      MOO2 : moles=5.82886e-27, volume=0
      MOO3 : moles=1.01641e-33, volume=0
      O : moles=4.30664e-21, volume=0
      O2 : moles=4.45436e-29, volume=0
      O3 : moles=5.827e-35, volume=0
      are : moles=0.00104886, volume=0
OpenCalphad attempt for 'matrix' with WARM-START

[OC input] ./OCinput_matrix.OCM
----------------------------------------
r u ./OCoutput_matrix.OCU

set ref o gas * 100000

set c t=1836
set c p=472000
set c n(o)=0.664991
set c n(pu)=0.0948194
set c n(u)=0.24019
c e
c w

save u ./OCoutput_matrix Y

l /out=./OCoutput_matrix.DAT r 1

fin
----------------------------------------

3A unfished preparations for XTDB


Open Calphad (OC) software version   6.106 , linked 2026-04-16
with command line monitor version  73

This program is available with a GNU General Public License.
either version 2 of the License, or any later version.
It includes the General Thermodynamic Package, version GTP-3.31,
Hillert's equilibrium calculation algorithm version HMS-3.0 ,
step/map/plot software version SMP-2.30 using GNUPLOT 5.2 graphics.
Numerical routines are extracted from LAPACK and BLAS and
the assessment procedure uses LMDIF from ANL.

Linked with OpenMp for parallel execution
 Warning, no environment variable OCHOME and no help file
 Working directory is: /home/ecappellari/transparant/sciantix-official/regression/test_JOG_MOX/point_02_r_0p7mm
--->OC6:
Read unformatted file: This is a save file for OC version:     OCF-3.20
Generated:  2026.04.20 09h52

 3E reading unformatted:        15024           0           0
3E Addition type   1, Inden-Hillert magn model for BCC_A2
3E Addition type   1, Inden-Hillert magn model for FCC_A1
 3E no experimental data
 3E no coefficient values saved
 3E Read assessment record
 No coefficients allocated
--->OC6:--->OC6:--->OC6:--->OC6:--->OC6:--->OC6:--->OC6:--->OC6:--->OC6:3Y Removed  1 gridpoints by merging
Gridmin:    7483 points   1.21E-02 s and      10 clockcycles, T= 1836.00
 3Y leaving global_gridmin
Phase change iteration:     4  -C1_MO2_AUTO#2
Equilibrium result:  17 its,  1.2975E-02 s,     14 cc, GS= -4.5807598E+05 J/mol
--->OC6:Equilibrium result:  11 its,  4.6700E-04 s,      0 cc, GS= -4.5807598E+05 J/mol
3Y Testing if any gridpoint is below the calculated equilibrium
--->OC6:--->OC6:
Overwriting previous results on ./OCoutput_matrix.OCU
3E allocating workspace:     122160          (   2160,   10000,    2)
 3E saving            3  symbols as texts
 3E used        12117  words out of       122160  for storing static data
 ceqrecsize not implemented          26
 3E Saving an equilibrium record requires     2854       0 words
 3E not storing unused equilibria from:            2
 3E Saving assessment record
 3E No experimental equilibrium range set
 3E allocating assessment head record          48
 3E no coefficients allocated
 3E no work array (assrec%wopt) allocated
Used    15059 words out of   122160,  12.33% for unformatted memory save
Written workspace      60236 bytes unformatted on ./OCoutput_matrix.OCU
--->OC6:--->OC6:Output on file: ./OCoutput_matrix.DAT
Output unit reset to screen:    6
--->OC6:--->OC6:
[OC output] ./OCoutput_matrix.DAT
----------------------------------------

%%%%%%%%%% OC output written: 2026-04-20  09h52

Output for equilibrium:   1, DEFAULT_EQUILIBRIUM          2026.04.20
Conditions .................................................:
  1:T=1836, 2:P=472000, 3:N(O)=0.664991, 4:N(PU)=.0948194, 5:N(U)=0.24019
 Degrees of freedom are   0

Some global data, reference state SER ......................:
T=   1836.00 K (  1562.85 C), P=  4.7200E+05 Pa, V=  0.0000E+00 m3
N=   1.0000E+00 moles, B=   9.0953E+01 g, RT=   1.5265E+04 J/mol
G= -4.58076E+05 J, G/N=-4.5808E+05 J/mol, H=-3.1598E+05 J, S= 7.739E+01 J/K

Some data for components ...................................:
Component name    Moles      Mole-fr  Chem.pot/RT  Activities  Ref.state
O                 6.6499E-01  0.66499 -1.3745E+01  1.0729E-06  GAS             
PU                9.4819E-02  0.09482 -3.5456E+01  3.9968E-16  SER (default)   
U                 2.4019E-01  0.24019 -3.5627E+01  3.3690E-16  SER (default)   

Some data for phases .......................................:
Name                Status Moles      Volume    Form.Units Cmp/FU dGm/RT  Comp:
C1_MO2#1................ E  1.000E+00  0.00E+00  3.35E-01    2.98  0.00E+00  X:
 O      6.64991E-01  U      2.40190E-01  PU     9.48194E-02


----------------------------------------

[OC parser] Parsed components
  O : moles=0.66499, x=0.66499, mu/RT=-13.745, activity=1.0729e-06, ref=GAS
  Pu : moles=0.094819, x=0.09482, mu/RT=-35.456, activity=3.9968e-16, ref=SER (default)
  U : moles=0.24019, x=0.24019, mu/RT=-35.627, activity=3.369e-16, ref=SER (default)

[OC parser] Parsed phases
  Phase condensed : moles=1, volume=0
    Elements
      O = 1.98167
      Pu = 0.282562
      U = 0.715766
    Species
      C1_MO2 : moles=1, volume=0
        O = 1.98167
        Pu = 0.282562
        U = 0.715766
OpenCalphad attempt for 'at grain boundary' with WARM-START

[OC input] ./OCinput_fission_products.OCM
----------------------------------------
r u ./OCoutput_fission_products.OCU

set ref o gas * 100000

set c t=1836
set c p=472000
set c n(cs)=5.85427e-05
set c n(mo)=0.000368833
set c n(o)=0.999573
c e
set c n(o)=none
set c mu(o)=-419636

c w

save u ./OCoutput_fission_products Y

l /out=./OCoutput_fission_products.DAT r 1

fin
----------------------------------------

3A unfished preparations for XTDB


Open Calphad (OC) software version   6.106 , linked 2026-04-16
with command line monitor version  73

This program is available with a GNU General Public License.
either version 2 of the License, or any later version.
It includes the General Thermodynamic Package, version GTP-3.31,
Hillert's equilibrium calculation algorithm version HMS-3.0 ,
step/map/plot software version SMP-2.30 using GNUPLOT 5.2 graphics.
Numerical routines are extracted from LAPACK and BLAS and
the assessment procedure uses LMDIF from ANL.

Linked with OpenMp for parallel execution
 Warning, no environment variable OCHOME and no help file
 Working directory is: /home/ecappellari/transparant/sciantix-official/regression/test_JOG_MOX/point_02_r_0p7mm
--->OC6:
Read unformatted file: This is a save file for OC version:     OCF-3.20
Generated:  2026.04.20 09h52

 3E reading unformatted:        16527           0           0
3E Addition type   1, Inden-Hillert magn model for BCC_A2
3E Addition type   1, Inden-Hillert magn model for FCC_A1
3E Addition type   1, Inden-Hillert magn model for HCP_A3
 3E no experimental data
 3E no coefficient values saved
 3E Read assessment record
 No coefficients allocated
--->OC6:--->OC6:--->OC6:--->OC6:--->OC6:--->OC6:--->OC6:--->OC6:--->OC6:
Error codes:   4144     0    50
Message: Degrees of freedom not zero

--->OC6:--->OC6:--->OC6:--->OC6:Equilibrium result:   9 its,  4.5800E-04 s,      0 cc, GS= -5.2195496E+01 J/mol
3Y Testing if any gridpoint is below the calculated equilibrium
--->OC6:--->OC6:
Overwriting previous results on ./OCoutput_fission_products.OCU
3E allocating workspace:     123330          (   3330,   10000,    2)
 3E saving            3  symbols as texts
 3E used        12286  words out of       123330  for storing static data
 ceqrecsize not implemented          39
 3E Saving an equilibrium record requires     4188       0 words
 3E not storing unused equilibria from:            2
 3E Saving assessment record
 3E No experimental equilibrium range set
 3E allocating assessment head record          48
 3E no coefficients allocated
 3E no work array (assrec%wopt) allocated
Used    16562 words out of   123330,  13.43% for unformatted memory save
Written workspace      66248 bytes unformatted on ./OCoutput_fission_products.OCU
--->OC6:--->OC6:Output on file: ./OCoutput_fission_products.DAT
Output unit reset to screen:    6
--->OC6:--->OC6:
[OC output] ./OCoutput_fission_products.DAT
----------------------------------------

%%%%%%%%%% OC output written: 2026-04-20  09h52

Output for equilibrium:   1, DEFAULT_EQUILIBRIUM          2026.04.20
Conditions .................................................:
  1:T=1836, 2:P=472000, 3:N(CS)=5.85427E-05, 4:N(MO)=.000368833, 5:MU(O)=
    -419636
 Degrees of freedom are   0

Some global data, reference state SER ......................:
T=   1836.00 K (  1562.85 C), P=  4.7200E+05 Pa, V=  1.8414E-06 m3
N=   4.2738E-04 moles, B=   4.3167E-02 g, RT=   1.5265E+04 J/mol
G= -5.21955E+01 J, G/N=-1.2213E+05 J/mol, H= 2.2767E+01 J, S= 4.083E-02 J/K

Some data for components ...................................:
Component name    Moles      Mole-fr  Chem.pot/RT  Activities  Ref.state
CS                5.8543E-05  0.13698 -1.7024E+01  4.0402E-08  SER (default)   
MO                3.6883E-04  0.86302 -6.5681E+00  1.4044E-03  SER (default)   
O                 2.7350E-14  0.00000 -2.7489E+01  1.1523E-12  GAS             

Some data for phases .......................................:
Name                Status Moles      Volume    Form.Units Cmp/FU dGm/RT  Comp:
GAS..................... E  5.789E-05  1.84E-06  5.69E-05    1.02  0.00E+00  X:
 CS     1.00000E+00  O      4.51414E-10  MO     2.11772E-12
Constitution: There are    18 constituents:
 CS           9.83280E-01  MOO          1.50748E-17  MOO3         4.31472E-29
 CS2          1.67203E-02  MO2          3.38695E-18  MO4O12       1.00000E-30
 CS2O         4.57216E-10  MOO2         1.73701E-22  MO3O9        1.00000E-30
 MO           2.15310E-12  CS2O2        7.02302E-23  MO2O6        1.00000E-30
 CSO          1.74577E-12  O2           1.32774E-24  O3           1.00000E-30
 O            9.01154E-17  CS2MOO4      7.64246E-26  MO5O15       1.00000E-30

BCC_A2.................. E  3.695E-04  0.00E+00  3.69E-04    1.00  0.00E+00  X:
 MO     9.98223E-01  CS     1.77711E-03  O      3.30000E-12


----------------------------------------

[OC parser] Parsed components
  Cs : moles=5.8543e-05, x=0.13698, mu/RT=-17.024, activity=4.0402e-08, ref=SER (default)
  Mo : moles=0.00036883, x=0.86302, mu/RT=-6.5681, activity=0.0014044, ref=SER (default)
  O : moles=2.735e-14, x=0, mu/RT=-27.489, activity=1.1523e-12, ref=GAS

[OC parser] Parsed phases
  Phase condensed : moles=0.0003695, volume=0
    Elements
      Cs = 6.56642e-07
      Mo = 0.000368843
      O = 1.21935e-15
    Species
      BCC_A2 : moles=0.0003695, volume=0
        Cs = 6.56642e-07
        Mo = 0.000368843
        O = 1.21935e-15
  Phase gas : moles=5.789e-05, volume=1.84e-06
    Elements
      Cs = 5.789e-05
      Mo = 1.22595e-16
      O = 2.61324e-14
    Species
      CS : moles=5.69221e-05, volume=0
      CS2 : moles=9.67938e-07, volume=0
      CS2MOO4 : moles=4.42422e-30, volume=0
      CS2O : moles=2.64682e-14, volume=0
      CS2O2 : moles=4.06563e-27, volume=0
      CSO : moles=1.01063e-16, volume=0
      MO : moles=1.24643e-16, volume=0
      MO2 : moles=1.96071e-22, volume=0
      MO2O6 : moles=5.789e-35, volume=0
      MO3O9 : moles=5.789e-35, volume=0
      MO4O12 : moles=5.789e-35, volume=0
      MO5O15 : moles=5.789e-35, volume=0
      MOO : moles=8.7268e-22, volume=0
      MOO2 : moles=1.00556e-26, volume=0
      MOO3 : moles=2.49779e-33, volume=0
      O : moles=5.21678e-21, volume=0
      O2 : moles=7.68629e-29, volume=0
      O3 : moles=5.789e-35, volume=0
      are : moles=0.00104202, volume=0
OpenCalphad attempt for 'matrix' with WARM-START

[OC input] ./OCinput_matrix.OCM
----------------------------------------
r u ./OCoutput_matrix.OCU

set ref o gas * 100000

set c t=1836
set c p=540000
set c n(o)=0.665273
set c n(pu)=0.0944357
set c n(u)=0.240292
c e
c w

save u ./OCoutput_matrix Y

l /out=./OCoutput_matrix.DAT r 1

fin
----------------------------------------

3A unfished preparations for XTDB


Open Calphad (OC) software version   6.106 , linked 2026-04-16
with command line monitor version  73

This program is available with a GNU General Public License.
either version 2 of the License, or any later version.
It includes the General Thermodynamic Package, version GTP-3.31,
Hillert's equilibrium calculation algorithm version HMS-3.0 ,
step/map/plot software version SMP-2.30 using GNUPLOT 5.2 graphics.
Numerical routines are extracted from LAPACK and BLAS and
the assessment procedure uses LMDIF from ANL.

Linked with OpenMp for parallel execution
 Warning, no environment variable OCHOME and no help file
 Working directory is: /home/ecappellari/transparant/sciantix-official/regression/test_JOG_MOX/point_02_r_0p7mm
--->OC6:
Read unformatted file: This is a save file for OC version:     OCF-3.20
Generated:  2026.04.20 09h52

 3E reading unformatted:        15024           0           0
3E Addition type   1, Inden-Hillert magn model for BCC_A2
3E Addition type   1, Inden-Hillert magn model for FCC_A1
 3E no experimental data
 3E no coefficient values saved
 3E Read assessment record
 No coefficients allocated
--->OC6:--->OC6:--->OC6:--->OC6:--->OC6:--->OC6:--->OC6:--->OC6:--->OC6:3Y Removed  1 gridpoints by merging
Gridmin:    7483 points   8.44E-03 s and       8 clockcycles, T= 1836.00
 3Y leaving global_gridmin
Phase change iteration:     4  -C1_MO2_AUTO#2
Equilibrium result:  17 its,  9.3160E-03 s,     10 cc, GS= -4.5803937E+05 J/mol
--->OC6:Equilibrium result:  14 its,  5.7700E-04 s,      0 cc, GS= -4.5803937E+05 J/mol
3Y Testing if any gridpoint is below the calculated equilibrium
--->OC6:--->OC6:
Overwriting previous results on ./OCoutput_matrix.OCU
3E allocating workspace:     122160          (   2160,   10000,    2)
 3E saving            3  symbols as texts
 3E used        12117  words out of       122160  for storing static data
 ceqrecsize not implemented          26
 3E Saving an equilibrium record requires     2854       0 words
 3E not storing unused equilibria from:            2
 3E Saving assessment record
 3E No experimental equilibrium range set
 3E allocating assessment head record          48
 3E no coefficients allocated
 3E no work array (assrec%wopt) allocated
Used    15059 words out of   122160,  12.33% for unformatted memory save
Written workspace      60236 bytes unformatted on ./OCoutput_matrix.OCU
--->OC6:--->OC6:Output on file: ./OCoutput_matrix.DAT
Output unit reset to screen:    6
--->OC6:--->OC6:
[OC output] ./OCoutput_matrix.DAT
----------------------------------------

%%%%%%%%%% OC output written: 2026-04-20  09h52

Output for equilibrium:   1, DEFAULT_EQUILIBRIUM          2026.04.20
Conditions .................................................:
  1:T=1836, 2:P=540000, 3:N(O)=0.665273, 4:N(PU)=.0944357, 5:N(U)=0.240292
 Degrees of freedom are   0

Some global data, reference state SER ......................:
T=   1836.00 K (  1562.85 C), P=  5.4000E+05 Pa, V=  0.0000E+00 m3
N=   1.0000E+00 moles, B=   9.0888E+01 g, RT=   1.5265E+04 J/mol
G= -4.58039E+05 J, G/N=-4.5804E+05 J/mol, H=-3.1606E+05 J, S= 7.733E+01 J/K

Some data for components ...................................:
Component name    Moles      Mole-fr  Chem.pot/RT  Activities  Ref.state
O                 6.6527E-01  0.66527 -1.3569E+01  1.2797E-06  GAS             
PU                9.4436E-02  0.09444 -3.5930E+01  2.4880E-16  SER (default)   
U                 2.4029E-01  0.24029 -3.6114E+01  2.0688E-16  SER (default)   

Some data for phases .......................................:
Name                Status Moles      Volume    Form.Units Cmp/FU dGm/RT  Comp:
C1_MO2#1................ E  1.000E+00  0.00E+00  3.35E-01    2.99  0.00E+00  X:
 O      6.65273E-01  U      2.40292E-01  PU     9.44356E-02


----------------------------------------

[OC parser] Parsed components
  O : moles=0.66527, x=0.66527, mu/RT=-13.569, activity=1.2797e-06, ref=GAS
  Pu : moles=0.094436, x=0.09444, mu/RT=-35.93, activity=2.488e-16, ref=SER (default)
  U : moles=0.24029, x=0.24029, mu/RT=-36.114, activity=2.0688e-16, ref=SER (default)

[OC parser] Parsed phases
  Phase condensed : moles=1, volume=0
    Elements
      O = 1.98917
      Pu = 0.282362
      U = 0.718473
    Species
      C1_MO2 : moles=1, volume=0
        O = 1.98917
        Pu = 0.282362
        U = 0.718473
OpenCalphad attempt for 'at grain boundary' with WARM-START

[OC input] ./OCinput_fission_products.OCM
----------------------------------------
r u ./OCoutput_fission_products.OCU

set ref o gas * 100000

set c t=1836
set c p=540000
set c n(cs)=8.55933e-05
set c n(mo)=0.000493039
set c n(o)=0.999421
c e
set c n(o)=none
set c mu(o)=-414263

c w

save u ./OCoutput_fission_products Y

l /out=./OCoutput_fission_products.DAT r 1

fin
----------------------------------------

3A unfished preparations for XTDB


Open Calphad (OC) software version   6.106 , linked 2026-04-16
with command line monitor version  73

This program is available with a GNU General Public License.
either version 2 of the License, or any later version.
It includes the General Thermodynamic Package, version GTP-3.31,
Hillert's equilibrium calculation algorithm version HMS-3.0 ,
step/map/plot software version SMP-2.30 using GNUPLOT 5.2 graphics.
Numerical routines are extracted from LAPACK and BLAS and
the assessment procedure uses LMDIF from ANL.

Linked with OpenMp for parallel execution
 Warning, no environment variable OCHOME and no help file
 Working directory is: /home/ecappellari/transparant/sciantix-official/regression/test_JOG_MOX/point_02_r_0p7mm
--->OC6:
Read unformatted file: This is a save file for OC version:     OCF-3.20
Generated:  2026.04.20 09h52

 3E reading unformatted:        16527           0           0
3E Addition type   1, Inden-Hillert magn model for BCC_A2
3E Addition type   1, Inden-Hillert magn model for FCC_A1
3E Addition type   1, Inden-Hillert magn model for HCP_A3
 3E no experimental data
 3E no coefficient values saved
 3E Read assessment record
 No coefficients allocated
--->OC6:--->OC6:--->OC6:--->OC6:--->OC6:--->OC6:--->OC6:--->OC6:--->OC6:
Error codes:   4144     0    50
Message: Degrees of freedom not zero

--->OC6:--->OC6:--->OC6:--->OC6:Equilibrium result:   9 its,  4.2000E-04 s,      1 cc, GS= -7.1508205E+01 J/mol
3Y Testing if any gridpoint is below the calculated equilibrium
--->OC6:--->OC6:
Overwriting previous results on ./OCoutput_fission_products.OCU
3E allocating workspace:     123330          (   3330,   10000,    2)
 3E saving            3  symbols as texts
 3E used        12286  words out of       123330  for storing static data
 ceqrecsize not implemented          39
 3E Saving an equilibrium record requires     4188       0 words
 3E not storing unused equilibria from:            2
 3E Saving assessment record
 3E No experimental equilibrium range set
 3E allocating assessment head record          48
 3E no coefficients allocated
 3E no work array (assrec%wopt) allocated
Used    16562 words out of   123330,  13.43% for unformatted memory save
Written workspace      66248 bytes unformatted on ./OCoutput_fission_products.OCU
--->OC6:--->OC6:Output on file: ./OCoutput_fission_products.DAT
Output unit reset to screen:    6
--->OC6:--->OC6:
[OC output] ./OCoutput_fission_products.DAT
----------------------------------------

%%%%%%%%%% OC output written: 2026-04-20  09h52

Output for equilibrium:   1, DEFAULT_EQUILIBRIUM          2026.04.20
Conditions .................................................:
  1:T=1836, 2:P=540000, 3:N(CS)=8.55933E-05, 4:N(MO)=.000493039, 5:MU(O)=
    -414263
 Degrees of freedom are   0

Some global data, reference state SER ......................:
T=   1836.00 K (  1562.85 C), P=  5.4000E+05 Pa, V=  2.3466E-06 m3
N=   5.7863E-04 moles, B=   5.8678E-02 g, RT=   1.5265E+04 J/mol
G= -7.15082E+01 J, G/N=-1.2358E+05 J/mol, H= 3.1213E+01 J, S= 5.595E-02 J/K

Some data for components ...................................:
Component name    Moles      Mole-fr  Chem.pot/RT  Activities  Ref.state
CS                8.5593E-05  0.14792 -1.6892E+01  4.6114E-08  SER (default)   
MO                4.9304E-04  0.85208 -6.5684E+00  1.4041E-03  SER (default)   
O                 6.7576E-14  0.00000 -2.7137E+01  1.6384E-12  GAS             

Some data for phases .......................................:
Name                Status Moles      Volume    Form.Units Cmp/FU dGm/RT  Comp:
GAS..................... E  8.459E-05  2.35E-06  8.30E-05    1.02  0.00E+00  X:
 CS     1.00000E+00  O      7.79592E-10  MO     1.84637E-12
Constitution: There are    18 constituents:
 CS           9.80961E-01  MOO          2.00343E-17  MOO3         1.32632E-28
 CS2          1.90390E-02  MO2          2.95895E-18  MO4O12       1.00000E-30
 CS2O         7.91785E-10  MOO2         3.51084E-22  MO3O9        1.00000E-30
 CSO          2.64878E-12  CS2O2        1.84968E-22  MO2O6        1.00000E-30
 MO           1.88150E-12  O2           2.68430E-24  O3           1.00000E-30
 O            1.19793E-16  CS2MOO4      4.65442E-25  MO5O15       1.00000E-30

BCC_A2.................. E  4.940E-04  0.00E+00  4.94E-04    1.00  0.00E+00  X:
 MO     9.97968E-01  CS     2.03172E-03  O      3.30000E-12


----------------------------------------

[OC parser] Parsed components
  Cs : moles=8.5593e-05, x=0.14792, mu/RT=-16.892, activity=4.6114e-08, ref=SER (default)
  Mo : moles=0.00049304, x=0.85208, mu/RT=-6.5684, activity=0.0014041, ref=SER (default)
  O : moles=6.7576e-14, x=0, mu/RT=-27.137, activity=1.6384e-12, ref=GAS

[OC parser] Parsed phases
  Phase condensed : moles=0.000494, volume=0
    Elements
      Cs = 1.00367e-06
      Mo = 0.000492996
      O = 1.6302e-15
    Species
      BCC_A2 : moles=0.000494, volume=0
        Cs = 1.00367e-06
        Mo = 0.000492996
        O = 1.6302e-15
  Phase gas : moles=8.459e-05, volume=2.35e-06
    Elements
      Cs = 8.459e-05
      Mo = 1.56184e-16
      O = 6.59457e-14
    Species
      CS : moles=8.29795e-05, volume=0
      CS2 : moles=1.61051e-06, volume=0
      CS2MOO4 : moles=3.93717e-29, volume=0
      CS2O : moles=6.69771e-14, volume=0
      CS2O2 : moles=1.56464e-26, volume=0
      CSO : moles=2.2406e-16, volume=0
      MO : moles=1.59156e-16, volume=0
      MO2 : moles=2.50298e-22, volume=0
      MO2O6 : moles=8.459e-35, volume=0
      MO3O9 : moles=8.459e-35, volume=0
      MO4O12 : moles=8.459e-35, volume=0
      MO5O15 : moles=8.459e-35, volume=0
      MOO : moles=1.6947e-21, volume=0
      MOO2 : moles=2.96982e-26, volume=0
      MOO3 : moles=1.12193e-32, volume=0
      O : moles=1.01333e-20, volume=0
      O2 : moles=2.27065e-28, volume=0
      O3 : moles=8.459e-35, volume=0
      are : moles=0.00152262, volume=0
OpenCalphad attempt for 'matrix' with WARM-START

[OC input] ./OCinput_matrix.OCM
----------------------------------------
r u ./OCoutput_matrix.OCU

set ref o gas * 100000

set c t=1836
set c p=608000
set c n(o)=0.665555
set c n(pu)=0.0940517
set c n(u)=0.240394
c e
c w

save u ./OCoutput_matrix Y

l /out=./OCoutput_matrix.DAT r 1

fin
----------------------------------------

3A unfished preparations for XTDB


Open Calphad (OC) software version   6.106 , linked 2026-04-16
with command line monitor version  73

This program is available with a GNU General Public License.
either version 2 of the License, or any later version.
It includes the General Thermodynamic Package, version GTP-3.31,
Hillert's equilibrium calculation algorithm version HMS-3.0 ,
step/map/plot software version SMP-2.30 using GNUPLOT 5.2 graphics.
Numerical routines are extracted from LAPACK and BLAS and
the assessment procedure uses LMDIF from ANL.

Linked with OpenMp for parallel execution
 Warning, no environment variable OCHOME and no help file
 Working directory is: /home/ecappellari/transparant/sciantix-official/regression/test_JOG_MOX/point_02_r_0p7mm
--->OC6:
Read unformatted file: This is a save file for OC version:     OCF-3.20
Generated:  2026.04.20 09h52

 3E reading unformatted:        15024           0           0
3E Addition type   1, Inden-Hillert magn model for BCC_A2
3E Addition type   1, Inden-Hillert magn model for FCC_A1
 3E no experimental data
 3E no coefficient values saved
 3E Read assessment record
 No coefficients allocated
--->OC6:--->OC6:--->OC6:--->OC6:--->OC6:--->OC6:--->OC6:--->OC6:--->OC6:3Y Removed  1 gridpoints by merging
Gridmin:    7483 points   8.45E-03 s and       8 clockcycles, T= 1836.00
 3Y leaving global_gridmin
Phase change iteration:     4  -C1_MO2_AUTO#2
Equilibrium result:  17 its,  9.1570E-03 s,     10 cc, GS= -4.5799929E+05 J/mol
--->OC6:Equilibrium result:  11 its,  4.0800E-04 s,      0 cc, GS= -4.5799929E+05 J/mol
3Y Testing if any gridpoint is below the calculated equilibrium
--->OC6:--->OC6:
Overwriting previous results on ./OCoutput_matrix.OCU
3E allocating workspace:     122160          (   2160,   10000,    2)
 3E saving            3  symbols as texts
 3E used        12117  words out of       122160  for storing static data
 ceqrecsize not implemented          26
 3E Saving an equilibrium record requires     2854       0 words
 3E not storing unused equilibria from:            2
 3E Saving assessment record
 3E No experimental equilibrium range set
 3E allocating assessment head record          48
 3E no coefficients allocated
 3E no work array (assrec%wopt) allocated
Used    15059 words out of   122160,  12.33% for unformatted memory save
Written workspace      60236 bytes unformatted on ./OCoutput_matrix.OCU
--->OC6:--->OC6:Output on file: ./OCoutput_matrix.DAT
Output unit reset to screen:    6
--->OC6:--->OC6:
[OC output] ./OCoutput_matrix.DAT
----------------------------------------

%%%%%%%%%% OC output written: 2026-04-20  09h52

Output for equilibrium:   1, DEFAULT_EQUILIBRIUM          2026.04.20
Conditions .................................................:
  1:T=1836, 2:P=608000, 3:N(O)=0.665555, 4:N(PU)=.0940517, 5:N(U)=0.240394
 Degrees of freedom are   0

Some global data, reference state SER ......................:
T=   1836.00 K (  1562.85 C), P=  6.0800E+05 Pa, V=  0.0000E+00 m3
N=   1.0000E+00 moles, B=   9.0823E+01 g, RT=   1.5265E+04 J/mol
G= -4.57999E+05 J, G/N=-4.5800E+05 J/mol, H=-3.1613E+05 J, S= 7.727E+01 J/K

Some data for components ...................................:
Component name    Moles      Mole-fr  Chem.pot/RT  Activities  Ref.state
O                 6.6556E-01  0.66555 -1.3344E+01  1.6031E-06  GAS             
PU                9.4052E-02  0.09405 -3.6486E+01  1.4270E-16  SER (default)   
U                 2.4039E-01  0.24039 -3.6684E+01  1.1699E-16  SER (default)   

Some data for phases .......................................:
Name                Status Moles      Volume    Form.Units Cmp/FU dGm/RT  Comp:
C1_MO2#1................ E  1.000E+00  0.00E+00  3.34E-01    2.99  0.00E+00  X:
 O      6.65555E-01  U      2.40394E-01  PU     9.40516E-02


----------------------------------------

[OC parser] Parsed components
  O : moles=0.66556, x=0.66555, mu/RT=-13.344, activity=1.6031e-06, ref=GAS
  Pu : moles=0.094052, x=0.09405, mu/RT=-36.486, activity=1.427e-16, ref=SER (default)
  U : moles=0.24039, x=0.24039, mu/RT=-36.684, activity=1.1699e-16, ref=SER (default)

[OC parser] Parsed phases
  Phase condensed : moles=1, volume=0
    Elements
      O = 1.99001
      Pu = 0.281214
      U = 0.718778
    Species
      C1_MO2 : moles=1, volume=0
        O = 1.99001
        Pu = 0.281214
        U = 0.718778
OpenCalphad attempt for 'at grain boundary' with WARM-START

[OC input] ./OCinput_fission_products.OCM
----------------------------------------
r u ./OCoutput_fission_products.OCU

set ref o gas * 100000

set c t=1836
set c p=608000
set c n(cs)=0.000118445
set c n(mo)=0.000621809
set c n(o)=0.99926
c e
set c n(o)=none
set c mu(o)=-407394

c w

save u ./OCoutput_fission_products Y

l /out=./OCoutput_fission_products.DAT r 1

fin
----------------------------------------

3A unfished preparations for XTDB


Open Calphad (OC) software version   6.106 , linked 2026-04-16
with command line monitor version  73

This program is available with a GNU General Public License.
either version 2 of the License, or any later version.
It includes the General Thermodynamic Package, version GTP-3.31,
Hillert's equilibrium calculation algorithm version HMS-3.0 ,
step/map/plot software version SMP-2.30 using GNUPLOT 5.2 graphics.
Numerical routines are extracted from LAPACK and BLAS and
the assessment procedure uses LMDIF from ANL.

Linked with OpenMp for parallel execution
 Warning, no environment variable OCHOME and no help file
 Working directory is: /home/ecappellari/transparant/sciantix-official/regression/test_JOG_MOX/point_02_r_0p7mm
--->OC6:
Read unformatted file: This is a save file for OC version:     OCF-3.20
Generated:  2026.04.20 09h52

 3E reading unformatted:        16527           0           0
3E Addition type   1, Inden-Hillert magn model for BCC_A2
3E Addition type   1, Inden-Hillert magn model for FCC_A1
3E Addition type   1, Inden-Hillert magn model for HCP_A3
 3E no experimental data
 3E no coefficient values saved
 3E Read assessment record
 No coefficients allocated
--->OC6:--->OC6:--->OC6:--->OC6:--->OC6:--->OC6:--->OC6:--->OC6:--->OC6:
Error codes:   4144     0    50
Message: Degrees of freedom not zero

--->OC6:--->OC6:--->OC6:--->OC6:Equilibrium result:   9 its,  4.1200E-04 s,      0 cc, GS= -9.2683372E+01 J/mol
3Y Testing if any gridpoint is below the calculated equilibrium
--->OC6:--->OC6:
Overwriting previous results on ./OCoutput_fission_products.OCU
3E allocating workspace:     123330          (   3330,   10000,    2)
 3E saving            3  symbols as texts
 3E used        12286  words out of       123330  for storing static data
 ceqrecsize not implemented          39
 3E Saving an equilibrium record requires     4188       0 words
 3E not storing unused equilibria from:            2
 3E Saving assessment record
 3E No experimental equilibrium range set
 3E allocating assessment head record          48
 3E no coefficients allocated
 3E no work array (assrec%wopt) allocated
Used    16562 words out of   123330,  13.43% for unformatted memory save
Written workspace      66248 bytes unformatted on ./OCoutput_fission_products.OCU
--->OC6:--->OC6:Output on file: ./OCoutput_fission_products.DAT
Output unit reset to screen:    6
--->OC6:--->OC6:
[OC output] ./OCoutput_fission_products.DAT
----------------------------------------

%%%%%%%%%% OC output written: 2026-04-20  09h52

Output for equilibrium:   1, DEFAULT_EQUILIBRIUM          2026.04.20
Conditions .................................................:
  1:T=1836, 2:P=608000, 3:N(CS)=.000118445, 4:N(MO)=.000621809, 5:MU(O)=
    -407394
 Degrees of freedom are   0

Some global data, reference state SER ......................:
T=   1836.00 K (  1562.85 C), P=  6.0800E+05 Pa, V=  2.8767E-06 m3
N=   7.4025E-04 moles, B=   7.5399E-02 g, RT=   1.5265E+04 J/mol
G= -9.26834E+01 J, G/N=-1.2520E+05 J/mol, H= 4.0479E+01 J, S= 7.253E-02 J/K

Some data for components ...................................:
Component name    Moles      Mole-fr  Chem.pot/RT  Activities  Ref.state
CS                1.1845E-04  0.16001 -1.6776E+01  5.1799E-08  SER (default)   
MO                6.2181E-04  0.83999 -6.5686E+00  1.4037E-03  SER (default)   
O                 1.7192E-13  0.00000 -2.6687E+01  2.5694E-12  GAS             

Some data for phases .......................................:
Name                Status Moles      Volume    Form.Units Cmp/FU dGm/RT  Comp:
GAS..................... E  1.170E-04  2.88E-06  1.15E-04    1.02  0.00E+00  X:
 CS     1.00000E+00  O      1.45003E-09  MO     1.63578E-12
Constitution: There are    18 constituents:
 CS           9.78664E-01  MOO          2.96027E-17  MOO3         5.42691E-28
 CS2          2.13363E-02  MO2          2.62670E-18  MO4O12       1.00000E-30
 CS2O         1.47658E-09  MOO2         8.63260E-22  MO3O9        1.00000E-30
 CSO          4.39746E-12  CS2O2        5.74008E-22  MO2O6        1.00000E-30
 MO           1.67065E-12  O2           6.60193E-24  O3           1.00000E-30
 O            1.77051E-16  CS2MOO4      3.99879E-24  MO5O15       1.00000E-30

BCC_A2.................. E  6.232E-04  0.00E+00  6.23E-04    1.00  0.00E+00  X:
 MO     9.97714E-01  CS     2.28600E-03  O      3.58896E-12


----------------------------------------

[OC parser] Parsed components
  Cs : moles=0.00011845, x=0.16001, mu/RT=-16.776, activity=5.1799e-08, ref=SER (default)
  Mo : moles=0.00062181, x=0.83999, mu/RT=-6.5686, activity=0.0014037, ref=SER (default)
  O : moles=1.7192e-13, x=0, mu/RT=-26.687, activity=2.5694e-12, ref=GAS

[OC parser] Parsed phases
  Phase condensed : moles=0.0006232, volume=0
    Elements
      Cs = 1.42464e-06
      Mo = 0.000621775
      O = 2.23664e-15
    Species
      BCC_A2 : moles=0.0006232, volume=0
        Cs = 1.42464e-06
        Mo = 0.000621775
        O = 2.23664e-15
  Phase gas : moles=0.000117, volume=2.88e-06
    Elements
      Cs = 0.000117
      Mo = 1.91386e-16
      O = 1.69654e-13
    Species
      CS : moles=0.000114504, volume=0
      CS2 : moles=2.49635e-06, volume=0
      CS2MOO4 : moles=4.67858e-28, volume=0
      CS2O : moles=1.7276e-13, volume=0
      CS2O2 : moles=6.71589e-26, volume=0
      CSO : moles=5.14503e-16, volume=0
      MO : moles=1.95466e-16, volume=0
      MO2 : moles=3.07324e-22, volume=0
      MO2O6 : moles=1.17e-34, volume=0
      MO3O9 : moles=1.17e-34, volume=0
      MO4O12 : moles=1.17e-34, volume=0
      MO5O15 : moles=1.17e-34, volume=0
      MOO : moles=3.46352e-21, volume=0
      MOO2 : moles=1.01001e-25, volume=0
      MOO3 : moles=6.34948e-32, volume=0
      O : moles=2.0715e-20, volume=0
      O2 : moles=7.72426e-28, volume=0
      O3 : moles=1.17e-34, volume=0
      are : moles=0.002106, volume=0
OpenCalphad attempt for 'matrix' with WARM-START

[OC input] ./OCinput_matrix.OCM
----------------------------------------
r u ./OCoutput_matrix.OCU

set ref o gas * 100000

set c t=1836
set c p=676000
set c n(o)=0.665837
set c n(pu)=0.0936674
set c n(u)=0.240496
c e
c w

save u ./OCoutput_matrix Y

l /out=./OCoutput_matrix.DAT r 1

fin
----------------------------------------

3A unfished preparations for XTDB


Open Calphad (OC) software version   6.106 , linked 2026-04-16
with command line monitor version  73

This program is available with a GNU General Public License.
either version 2 of the License, or any later version.
It includes the General Thermodynamic Package, version GTP-3.31,
Hillert's equilibrium calculation algorithm version HMS-3.0 ,
step/map/plot software version SMP-2.30 using GNUPLOT 5.2 graphics.
Numerical routines are extracted from LAPACK and BLAS and
the assessment procedure uses LMDIF from ANL.

Linked with OpenMp for parallel execution
 Warning, no environment variable OCHOME and no help file
 Working directory is: /home/ecappellari/transparant/sciantix-official/regression/test_JOG_MOX/point_02_r_0p7mm
--->OC6:
Read unformatted file: This is a save file for OC version:     OCF-3.20
Generated:  2026.04.20 09h52

 3E reading unformatted:        15024           0           0
3E Addition type   1, Inden-Hillert magn model for BCC_A2
3E Addition type   1, Inden-Hillert magn model for FCC_A1
 3E no experimental data
 3E no coefficient values saved
 3E Read assessment record
 No coefficients allocated
--->OC6:--->OC6:--->OC6:--->OC6:--->OC6:--->OC6:--->OC6:--->OC6:--->OC6:3Y Removed  1 gridpoints by merging
Gridmin:    7483 points   9.10E-03 s and       8 clockcycles, T= 1836.00
 3Y leaving global_gridmin
Phase change iteration:     4  -C1_MO2_AUTO#2
Equilibrium result:  17 its,  9.9010E-03 s,     10 cc, GS= -4.5795506E+05 J/mol
--->OC6:Equilibrium result:  18 its,  6.6800E-04 s,      0 cc, GS= -4.5795506E+05 J/mol
3Y Testing if any gridpoint is below the calculated equilibrium
--->OC6:--->OC6:
Overwriting previous results on ./OCoutput_matrix.OCU
3E allocating workspace:     122160          (   2160,   10000,    2)
 3E saving            3  symbols as texts
 3E used        12117  words out of       122160  for storing static data
 ceqrecsize not implemented          26
 3E Saving an equilibrium record requires     2854       0 words
 3E not storing unused equilibria from:            2
 3E Saving assessment record
 3E No experimental equilibrium range set
 3E allocating assessment head record          48
 3E no coefficients allocated
 3E no work array (assrec%wopt) allocated
Used    15059 words out of   122160,  12.33% for unformatted memory save
Written workspace      60236 bytes unformatted on ./OCoutput_matrix.OCU
--->OC6:--->OC6:Output on file: ./OCoutput_matrix.DAT

Output unit reset to screen:    6
--->OC6:--->OC6:
[OC output] ./OCoutput_matrix.DAT
----------------------------------------

%%%%%%%%%% OC output written: 2026-04-20  09h52

Output for equilibrium:   1, DEFAULT_EQUILIBRIUM          2026.04.20
Conditions .................................................:
  1:T=1836, 2:P=676000, 3:N(O)=0.665837, 4:N(PU)=.0936674, 5:N(U)=0.240496
 Degrees of freedom are   0

Some global data, reference state SER ......................:
T=   1836.00 K (  1562.85 C), P=  6.7600E+05 Pa, V=  0.0000E+00 m3
N=   1.0000E+00 moles, B=   9.0758E+01 g, RT=   1.5265E+04 J/mol
G= -4.57955E+05 J, G/N=-4.5795E+05 J/mol, H=-3.1620E+05 J, S= 7.721E+01 J/K

Some data for components ...................................:
Component name    Moles      Mole-fr  Chem.pot/RT  Activities  Ref.state
O                 6.6584E-01  0.66584 -1.3047E+01  2.1574E-06  GAS             
PU                9.3667E-02  0.09367 -3.7172E+01  7.1830E-17  SER (default)   
U                 2.4050E-01  0.24050 -3.7385E+01  5.8040E-17  SER (default)   

Some data for phases .......................................:
Name                Status Moles      Volume    Form.Units Cmp/FU dGm/RT  Comp:
C1_MO2#1................ E  1.000E+00  0.00E+00  3.34E-01    2.99  0.00E+00  X:
 O      6.65837E-01  U      2.40496E-01  PU     9.36674E-02

C1_MO2_AUTO#2........... E  0.000E+00  0.00E+00  0.00E+00    2.64  7.09E-04  X:
 O      6.21469E-01  U      2.28867E-01  PU     1.49664E-01


 *** There are phase(s) which would like to be stable:
   C1_MO2  7.0854E-04

----------------------------------------

[OC parser] Parsed components
  O : moles=0.66584, x=0.66584, mu/RT=-13.047, activity=2.1574e-06, ref=GAS
  Pu : moles=0.093667, x=0.09367, mu/RT=-37.172, activity=7.183e-17, ref=SER (default)
  U : moles=0.2405, x=0.2405, mu/RT=-37.385, activity=5.804e-17, ref=SER (default)

[OC parser] Parsed phases
  Phase condensed : moles=1, volume=0
    Elements
      O = 3.63153
      Pu = 0.675178
      U = 1.32329
    Species
      C1_MO2 : moles=1, volume=0
        O = 1.64068
        Pu = 0.395113
        U = 0.604209
OpenCalphad attempt for 'at grain boundary' with WARM-START

[OC input] ./OCinput_fission_products.OCM
----------------------------------------
r u ./OCoutput_fission_products.OCU

set ref o gas * 100000

set c t=1836
set c p=676000
set c n(cs)=0.000158885
set c n(mo)=0.000753776
set c n(o)=0.999087
c e
set c n(o)=none
set c mu(o)=-398326

c w

save u ./OCoutput_fission_products Y

l /out=./OCoutput_fission_products.DAT r 1

fin
----------------------------------------

3A unfished preparations for XTDB


Open Calphad (OC) software version   6.106 , linked 2026-04-16
with command line monitor version  73

This program is available with a GNU General Public License.
either version 2 of the License, or any later version.
It includes the General Thermodynamic Package, version GTP-3.31,
Hillert's equilibrium calculation algorithm version HMS-3.0 ,
step/map/plot software version SMP-2.30 using GNUPLOT 5.2 graphics.
Numerical routines are extracted from LAPACK and BLAS and
the assessment procedure uses LMDIF from ANL.

Linked with OpenMp for parallel execution
 Warning, no environment variable OCHOME and no help file
 Working directory is: /home/ecappellari/transparant/sciantix-official/regression/test_JOG_MOX/point_02_r_0p7mm
--->OC6:
Read unformatted file: This is a save file for OC version:     OCF-3.20
Generated:  2026.04.20 09h52

 3E reading unformatted:        16527           0           0
3E Addition type   1, Inden-Hillert magn model for BCC_A2
3E Addition type   1, Inden-Hillert magn model for FCC_A1
3E Addition type   1, Inden-Hillert magn model for HCP_A3
 3E no experimental data
 3E no coefficient values saved
 3E Read assessment record
 No coefficients allocated
--->OC6:--->OC6:--->OC6:--->OC6:--->OC6:--->OC6:--->OC6:--->OC6:--->OC6:
Error codes:   4144     0    50
Message: Degrees of freedom not zero

--->OC6:--->OC6:--->OC6:--->OC6:Equilibrium result:   9 its,  4.0000E-04 s,      0 cc, GS= -1.1602382E+02 J/mol
3Y Testing if any gridpoint is below the calculated equilibrium
--->OC6:--->OC6:
Overwriting previous results on ./OCoutput_fission_products.OCU
3E allocating workspace:     123330          (   3330,   10000,    2)
 3E saving            3  symbols as texts
 3E used        12286  words out of       123330  for storing static data
 ceqrecsize not implemented          39
 3E Saving an equilibrium record requires     4188       0 words
 3E not storing unused equilibria from:            2
 3E Saving assessment record
 3E No experimental equilibrium range set
 3E allocating assessment head record          48
 3E no coefficients allocated
 3E no work array (assrec%wopt) allocated
Used    16562 words out of   123330,  13.43% for unformatted memory save
Written workspace      66248 bytes unformatted on ./OCoutput_fission_products.OCU
--->OC6:--->OC6:Output on file: ./OCoutput_fission_products.DAT
Output unit reset to screen:    6
--->OC6:--->OC6:
[OC output] ./OCoutput_fission_products.DAT
----------------------------------------

%%%%%%%%%% OC output written: 2026-04-20  09h52

Output for equilibrium:   1, DEFAULT_EQUILIBRIUM          2026.04.20
Conditions .................................................:
  1:T=1836, 2:P=676000, 3:N(CS)=.000158885, 4:N(MO)=.000753776, 5:MU(O)=
    -398326
 Degrees of freedom are   0

Some global data, reference state SER ......................:
T=   1836.00 K (  1562.85 C), P=  6.7600E+05 Pa, V=  3.4628E-06 m3
N=   9.1266E-04 moles, B=   9.3435E-02 g, RT=   1.5265E+04 J/mol
G= -1.16024E+02 J, G/N=-1.2713E+05 J/mol, H= 5.0695E+01 J, S= 9.081E-02 J/K

Some data for components ...................................:
Component name    Moles      Mole-fr  Chem.pot/RT  Activities  Ref.state
CS                1.5888E-04  0.17409 -1.6672E+01  5.7459E-08  SER (default)   
MO                7.5378E-04  0.82591 -6.5689E+00  1.4034E-03  SER (default)   
O                 4.8504E-13  0.00000 -2.6093E+01  4.6539E-12  GAS             

Some data for phases .......................................:
Name                Status Moles      Volume    Form.Units Cmp/FU dGm/RT  Comp:
GAS..................... E  1.570E-04  3.46E-06  1.53E-04    1.02  0.00E+00  X:
 CS     1.00000E+00  O      3.05708E-09  MO     1.46762E-12
Constitution: There are    18 constituents:
 CS           9.76388E-01  MOO          5.08371E-17  MOO3         3.39943E-27
 CS2          2.36123E-02  MO2          2.36129E-18  MO3O9        1.00000E-30
 CS2O         3.12089E-09  MOO2         2.83135E-21  MO2O6        1.00000E-30
 CSO          8.37901E-12  CS2O2        2.31709E-21  MO4O12       1.00000E-30
 MO           1.50222E-12  CS2MOO4      5.88637E-23  O3           1.00000E-30
 O            3.04128E-16  O2           2.16586E-23  MO5O15       1.00000E-30

BCC_A2.................. E  7.557E-04  0.00E+00  7.56E-04    1.00  0.00E+00  X:
 MO     9.97460E-01  CS     2.53997E-03  O      6.85922E-12


----------------------------------------

[OC parser] Parsed components
  Cs : moles=0.00015888, x=0.17409, mu/RT=-16.672, activity=5.7459e-08, ref=SER (default)
  Mo : moles=0.00075378, x=0.82591, mu/RT=-6.5689, activity=0.0014034, ref=SER (default)
  O : moles=4.8504e-13, x=0, mu/RT=-26.093, activity=4.6539e-12, ref=GAS

[OC parser] Parsed phases
  Phase condensed : moles=0.0007557, volume=0
    Elements
      Cs = 1.91946e-06
      Mo = 0.000753781
      O = 5.18351e-15
    Species
      BCC_A2 : moles=0.0007557, volume=0
        Cs = 1.91946e-06
        Mo = 0.000753781
        O = 5.18351e-15
  Phase gas : moles=0.000157, volume=3.46e-06
    Elements
      Cs = 0.000157
      Mo = 2.30416e-16
      O = 4.79962e-13
    Species
      CS : moles=0.000153293, volume=0
      CS2 : moles=3.70713e-06, volume=0
      CS2MOO4 : moles=9.2416e-27, volume=0
      CS2O : moles=4.8998e-13, volume=0
      CS2O2 : moles=3.63783e-25, volume=0
      CSO : moles=1.3155e-15, volume=0
      MO : moles=2.35849e-16, volume=0
[...]
Warning: No composition information available for thermochemistry variable CS4O (condensed, at grain boundary). Molar mass cannot be computed and will be returned as zero.
Warning: No composition information available for thermochemistry variable CS7O1 (condensed, at grain boundary). Molar mass cannot be computed and will be returned as zero.
Warning: No composition information available for thermochemistry variable CS7O2 (condensed, at grain boundary). Molar mass cannot be computed and will be returned as zero.
Warning: No composition information available for thermochemistry variable CSO2 (condensed, at grain boundary). Molar mass cannot be computed and will be returned as zero.
Warning: No composition information available for thermochemistry variable CSO3 (condensed, at grain boundary). Molar mass cannot be computed and will be returned as zero.
Warning: No composition information available for thermochemistry variable DIAMOND_A4 (condensed, at grain boundary). Molar mass cannot be computed and will be returned as zero.
Warning: No composition information available for thermochemistry variable DIS_SIG (condensed, at grain boundary). Molar mass cannot be computed and will be returned as zero.
Warning: No composition information available for thermochemistry variable FCC_A1 (condensed, at grain boundary). Molar mass cannot be computed and will be returned as zero.
Warning: No composition information available for thermochemistry variable HCP_A3 (condensed, at grain boundary). Molar mass cannot be computed and will be returned as zero.
Warning: No composition information available for thermochemistry variable MC_ETA (condensed, at grain boundary). Molar mass cannot be computed and will be returned as zero.
Warning: No composition information available for thermochemistry variable MO4O11 (condensed, at grain boundary). Molar mass cannot be computed and will be returned as zero.
Warning: No composition information available for thermochemistry variable MO8O23 (condensed, at grain boundary). Molar mass cannot be computed and will be returned as zero.
Warning: No composition information available for thermochemistry variable MO9O26 (condensed, at grain boundary). Molar mass cannot be computed and will be returned as zero.
Warning: No composition information available for thermochemistry variable MOO2 (condensed, at grain boundary). Molar mass cannot be computed and will be returned as zero.
Warning: No composition information available for thermochemistry variable MOO3 (condensed, at grain boundary). Molar mass cannot be computed and will be returned as zero.
Warning: No composition information available for thermochemistry variable ORTHORHOMBIC_A20 (condensed, at grain boundary). Molar mass cannot be computed and will be returned as zero.
Warning: No composition information available for thermochemistry variable SIGMA (condensed, at grain boundary). Molar mass cannot be computed and will be returned as zero.
Warning: No composition information available for thermochemistry variable TETRAGONAL_U (condensed, at grain boundary). Molar mass cannot be computed and will be returned as zero.
Warning: No composition information available for thermochemistry variable UO3 (condensed, at grain boundary). Molar mass cannot be computed and will be returned as zero.
Warning: No composition information available for thermochemistry variable U4O9_S1 (condensed, at grain boundary). Molar mass cannot be computed and will be returned as zero.
Warning: No composition information available for thermochemistry variable U4O9_S2 (condensed, at grain boundary). Molar mass cannot be computed and will be returned as zero.
Warning: No composition information available for thermochemistry variable U4O9_S3 (condensed, at grain boundary). Molar mass cannot be computed and will be returned as zero.
Warning: No composition information available for thermochemistry variable U3O8_S1 (condensed, at grain boundary). Molar mass cannot be computed and will be returned as zero.
Warning: No composition information available for thermochemistry variable U3O8_S2 (condensed, at grain boundary). Molar mass cannot be computed and will be returned as zero.
Warning: No composition information available for thermochemistry variable U3O8_S3 (condensed, at grain boundary). Molar mass cannot be computed and will be returned as zero.
Warning: No composition information available for thermochemistry variable U3O8_S4 (condensed, at grain boundary). Molar mass cannot be computed and will be returned as zero.
STOP Au revoir
STOP Au revoir
Warning: No composition information available for thermochemistry variable UO2:VA (ionic_liquid, at grain boundary). Molar mass cannot be computed and will be returned as zero.
Warning: No composition information available for thermochemistry variable U (ionic_liquid, at grain boundary). Molar mass cannot be computed and will be returned as zero.
Warning: No composition information available for thermochemistry variable O (ionic_liquid, at grain boundary). Molar mass cannot be computed and will be returned as zero.
Warning: No composition information available for thermochemistry variable BCC_A2 (condensed, at grain boundary). Molar mass cannot be computed and will be returned as zero.
Warning: No composition information available for thermochemistry variable C1_MO2 (condensed, at grain boundary). Molar mass cannot be computed and will be returned as zero.
Warning: No composition information available for thermochemistry variable C14_LAVES (condensed, at grain boundary). Molar mass cannot be computed and will be returned as zero.
Warning: No composition information available for thermochemistry variable C15_LAVES (condensed, at grain boundary). Molar mass cannot be computed and will be returned as zero.
Warning: No composition information available for thermochemistry variable CS2MO2O7_S1 (condensed, at grain boundary). Molar mass cannot be computed and will be returned as zero.
Warning: No composition information available for thermochemistry variable CS2MO2O7_S2 (condensed, at grain boundary). Molar mass cannot be computed and will be returned as zero.
Warning: No composition information available for thermochemistry variable CS2MO3O10 (condensed, at grain boundary). Molar mass cannot be computed and will be returned as zero.
Warning: No composition information available for thermochemistry variable CS2MO4O13 (condensed, at grain boundary). Molar mass cannot be computed and will be returned as zero.
Warning: No composition information available for thermochemistry variable CS2MO5O16 (condensed, at grain boundary). Molar mass cannot be computed and will be returned as zero.
Warning: No composition information available for thermochemistry variable CS2MO7O22 (condensed, at grain boundary). Molar mass cannot be computed and will be returned as zero.
Warning: No composition information available for thermochemistry variable CS2MOO4_S1 (condensed, at grain boundary). Molar mass cannot be computed and will be returned as zero.
Warning: No composition information available for thermochemistry variable CS2MOO4_S2 (condensed, at grain boundary). Molar mass cannot be computed and will be returned as zero.
Warning: No composition information available for thermochemistry variable CS2O1 (condensed, at grain boundary). Molar mass cannot be computed and will be returned as zero.
Warning: No composition information available for thermochemistry variable CS2O2 (condensed, at grain boundary). Molar mass cannot be computed and will be returned as zero.
Warning: No composition information available for thermochemistry variable CS3O (condensed, at grain boundary). Molar mass cannot be computed and will be returned as zero.
Warning: No composition information available for thermochemistry variable CS4O (condensed, at grain boundary). Molar mass cannot be computed and will be returned as zero.
Warning: No composition information available for thermochemistry variable CS7O1 (condensed, at grain boundary). Molar mass cannot be computed and will be returned as zero.
Warning: No composition information available for thermochemistry variable CS7O2 (condensed, at grain boundary). Molar mass cannot be computed and will be returned as zero.
Warning: No composition information available for thermochemistry variable CSO2 (condensed, at grain boundary). Molar mass cannot be computed and will be returned as zero.
Warning: No composition information available for thermochemistry variable CSO3 (condensed, at grain boundary). Molar mass cannot be computed and will be returned as zero.
Warning: No composition information available for thermochemistry variable DIAMOND_A4 (condensed, at grain boundary). Molar mass cannot be computed and will be returned as zero.
Warning: No composition information available for thermochemistry variable DIS_SIG (condensed, at grain boundary). Molar mass cannot be computed and will be returned as zero.
Warning: No composition information available for thermochemistry variable FCC_A1 (condensed, at grain boundary). Molar mass cannot be computed and will be returned as zero.
Warning: No composition information available for thermochemistry variable HCP_A3 (condensed, at grain boundary). Molar mass cannot be computed and will be returned as zero.
Warning: No composition information available for thermochemistry variable MC_ETA (condensed, at grain boundary). Molar mass cannot be computed and will be returned as zero.
Warning: No composition information available for thermochemistry variable MO4O11 (condensed, at grain boundary). Molar mass cannot be computed and will be returned as zero.
Warning: No composition information available for thermochemistry variable MO8O23 (condensed, at grain boundary). Molar mass cannot be computed and will be returned as zero.
Warning: No composition information available for thermochemistry variable MO9O26 (condensed, at grain boundary). Molar mass cannot be computed and will be returned as zero.
Warning: No composition information available for thermochemistry variable MOO2 (condensed, at grain boundary). Molar mass cannot be computed and will be returned as zero.
Warning: No composition information available for thermochemistry variable MOO3 (condensed, at grain boundary). Molar mass cannot be computed and will be returned as zero.
Warning: No composition information available for thermochemistry variable ORTHORHOMBIC_A20 (condensed, at grain boundary). Molar mass cannot be computed and will be returned as zero.
Warning: No composition information available for thermochemistry variable SIGMA (condensed, at grain boundary). Molar mass cannot be computed and will be returned as zero.
Warning: No composition information available for thermochemistry variable TETRAGONAL_U (condensed, at grain boundary). Molar mass cannot be computed and will be returned as zero.
Warning: No composition information available for thermochemistry variable UO3 (condensed, at grain boundary). Molar mass cannot be computed and will be returned as zero.
Warning: No composition information available for thermochemistry variable U4O9_S1 (condensed, at grain boundary). Molar mass cannot be computed and will be returned as zero.
Warning: No composition information available for thermochemistry variable U4O9_S2 (condensed, at grain boundary). Molar mass cannot be computed and will be returned as zero.
Warning: No composition information available for thermochemistry variable U4O9_S3 (condensed, at grain boundary). Molar mass cannot be computed and will be returned as zero.
Warning: No composition information available for thermochemistry variable U3O8_S1 (condensed, at grain boundary). Molar mass cannot be computed and will be returned as zero.
Warning: No composition information available for thermochemistry variable U3O8_S2 (condensed, at grain boundary). Molar mass cannot be computed and will be returned as zero.
Warning: No composition information available for thermochemistry variable U3O8_S3 (condensed, at grain boundary). Molar mass cannot be computed and will be returned as zero.
Warning: No composition information available for thermochemistry variable U3O8_S4 (condensed, at grain boundary). Molar mass cannot be computed and will be returned as zero.
STOP Au revoir
STOP Au revoir
Warning: No composition information available for thermochemistry variable UO2:VA (ionic_liquid, at grain boundary). Molar mass cannot be computed and will be returned as zero.
Warning: No composition information available for thermochemistry variable U (ionic_liquid, at grain boundary). Molar mass cannot be computed and will be returned as zero.
Warning: No composition information available for thermochemistry variable O (ionic_liquid, at grain boundary). Molar mass cannot be computed and will be returned as zero.
Warning: No composition information available for thermochemistry variable BCC_A2 (condensed, at grain boundary). Molar mass cannot be computed and will be returned as zero.
Warning: No composition information available for thermochemistry variable C1_MO2 (condensed, at grain boundary). Molar mass cannot be computed and will be returned as zero.
Warning: No composition information available for thermochemistry variable C14_LAVES (condensed, at grain boundary). Molar mass cannot be computed and will be returned as zero.
Warning: No composition information available for thermochemistry variable C15_LAVES (condensed, at grain boundary). Molar mass cannot be computed and will be returned as zero.
Warning: No composition information available for thermochemistry variable CS2MO2O7_S1 (condensed, at grain boundary). Molar mass cannot be computed and will be returned as zero.
Warning: No composition information available for thermochemistry variable CS2MO2O7_S2 (condensed, at grain boundary). Molar mass cannot be computed and will be returned as zero.
Warning: No composition information available for thermochemistry variable CS2MO3O10 (condensed, at grain boundary). Molar mass cannot be computed and will be returned as zero.
Warning: No composition information available for thermochemistry variable CS2MO4O13 (condensed, at grain boundary). Molar mass cannot be computed and will be returned as zero.
Warning: No composition information available for thermochemistry variable CS2MO5O16 (condensed, at grain boundary). Molar mass cannot be computed and will be returned as zero.
Warning: No composition information available for thermochemistry variable CS2MO7O22 (condensed, at grain boundary). Molar mass cannot be computed and will be returned as zero.
Warning: No composition information available for thermochemistry variable CS2MOO4_S1 (condensed, at grain boundary). Molar mass cannot be computed and will be returned as zero.
Warning: No composition information available for thermochemistry variable CS2MOO4_S2 (condensed, at grain boundary). Molar mass cannot be computed and will be returned as zero.
Warning: No composition information available for thermochemistry variable CS2O1 (condensed, at grain boundary). Molar mass cannot be computed and will be returned as zero.
Warning: No composition information available for thermochemistry variable CS2O2 (condensed, at grain boundary). Molar mass cannot be computed and will be returned as zero.
Warning: No composition information available for thermochemistry variable CS3O (condensed, at grain boundary). Molar mass cannot be computed and will be returned as zero.
Warning: No composition information available for thermochemistry variable CS4O (condensed, at grain boundary). Molar mass cannot be computed and will be returned as zero.
Warning: No composition information available for thermochemistry variable CS7O1 (condensed, at grain boundary). Molar mass cannot be computed and will be returned as zero.
Warning: No composition information available for thermochemistry variable CS7O2 (condensed, at grain boundary). Molar mass cannot be computed and will be returned as zero.
Warning: No composition information available for thermochemistry variable CSO2 (condensed, at grain boundary). Molar mass cannot be computed and will be returned as zero.
Warning: No composition information available for thermochemistry variable CSO3 (condensed, at grain boundary). Molar mass cannot be computed and will be returned as zero.
Warning: No composition information available for thermochemistry variable DIAMOND_A4 (condensed, at grain boundary). Molar mass cannot be computed and will be returned as zero.
Warning: No composition information available for thermochemistry variable DIS_SIG (condensed, at grain boundary). Molar mass cannot be computed and will be returned as zero.
Warning: No composition information available for thermochemistry variable FCC_A1 (condensed, at grain boundary). Molar mass cannot be computed and will be returned as zero.
Warning: No composition information available for thermochemistry variable HCP_A3 (condensed, at grain boundary). Molar mass cannot be computed and will be returned as zero.
Warning: No composition information available for thermochemistry variable MC_ETA (condensed, at grain boundary). Molar mass cannot be computed and will be returned as zero.
Warning: No composition information available for thermochemistry variable MO4O11 (condensed, at grain boundary). Molar mass cannot be computed and will be returned as zero.
Warning: No composition information available for thermochemistry variable MO8O23 (condensed, at grain boundary). Molar mass cannot be computed and will be returned as zero.
Warning: No composition information available for thermochemistry variable MO9O26 (condensed, at grain boundary). Molar mass cannot be computed and will be returned as zero.
Warning: No composition information available for thermochemistry variable MOO2 (condensed, at grain boundary). Molar mass cannot be computed and will be returned as zero.
Warning: No composition information available for thermochemistry variable MOO3 (condensed, at grain boundary). Molar mass cannot be computed and will be returned as zero.
Warning: No composition information available for thermochemistry variable ORTHORHOMBIC_A20 (condensed, at grain boundary). Molar mass cannot be computed and will be returned as zero.
Warning: No composition information available for thermochemistry variable SIGMA (condensed, at grain boundary). Molar mass cannot be computed and will be returned as zero.
Warning: No composition information available for thermochemistry variable TETRAGONAL_U (condensed, at grain boundary). Molar mass cannot be computed and will be returned as zero.
Warning: No composition information available for thermochemistry variable UO3 (condensed, at grain boundary). Molar mass cannot be computed and will be returned as zero.
Warning: No composition information available for thermochemistry variable U4O9_S1 (condensed, at grain boundary). Molar mass cannot be computed and will be returned as zero.
Warning: No composition information available for thermochemistry variable U4O9_S2 (condensed, at grain boundary). Molar mass cannot be computed and will be returned as zero.
Warning: No composition information available for thermochemistry variable U4O9_S3 (condensed, at grain boundary). Molar mass cannot be computed and will be returned as zero.
Warning: No composition information available for thermochemistry variable U3O8_S1 (condensed, at grain boundary). Molar mass cannot be computed and will be returned as zero.
Warning: No composition information available for thermochemistry variable U3O8_S2 (condensed, at grain boundary). Molar mass cannot be computed and will be returned as zero.
Warning: No composition information available for thermochemistry variable U3O8_S3 (condensed, at grain boundary). Molar mass cannot be computed and will be returned as zero.
Warning: No composition information available for thermochemistry variable U3O8_S4 (condensed, at grain boundary). Molar mass cannot be computed and will be returned as zero.
