Use ./sciantix.x ../input_path/ in the working directory
OpenCalphad attempt for 'matrix' with WARM-START

[OC input] ./OCinput_matrix.OCM
----------------------------------------
@$ Initialize variables:
r t /home/ecappellari/transparant/opencalphad/data/O-Pu-UPaper o pu u

set ref o gas * 100000

set c t=1651
set c p=200000
set c n(o)=0.663866
set c n(pu)=0.0963509
set c n(u)=0.239784
c e
c w

save u ./OCoutput_matrix Y

l /out=./OCoutput_matrix.DAT r 1

fin
----------------------------------------

3A unfished preparations for XTDB


Open Calphad (OC) software version   6.106 , linked 2026-04-16
with command line monitor version  73

This program is available with a GNU General Public License.
either version 2 of the License, or any later version.
It includes the General Thermodynamic Package, version GTP-3.31,
Hillert's equilibrium calculation algorithm version HMS-3.0 ,
step/map/plot software version SMP-2.30 using GNUPLOT 5.2 graphics.
Numerical routines are extracted from LAPACK and BLAS and
the assessment procedure uses LMDIF from ANL.

Linked with OpenMp for parallel execution
 Warning, no environment variable OCHOME and no help file
 Working directory is: /home/ecappellari/transparant/sciantix-official/regression/test_JOG_MOX/point_05_r_1p5mm
--->OC6:--->OC6: 3E Database file extention is: ".tdb"

This database has information to users, please read carefully
Database modified by Pauline Fouquet-Metivier et al, Calphad (2022)
Only for the liquid phase of Pu-O and U-Pu-O systems

 ELEMENT /-   ELECTRON_GAS              0.0000E+00  0.0000E+00  0.0000E+00!

Database has  5 elements: O  PU U  AR N 
Give the elements to select, finish with empty line
Selected  3 elements: O  PU U 
Select elements /no more/:Selected  3 elements: O  PU U 
3E reading database file: /home/ecappellari/transparant/opencalphad/data/O-Pu-UPaper.TDB
 3B insering interaction before existing F

Out of   115 model parameters   108 have been entered


There are    17 bibliographic references
REF161          '*** Not set by database or user'
REF178          '*** Not set by database or user'
REF175          '*** Not set by database or user'
REF176          '*** Not set by database or user'
REF177          '*** Not set by database or user'
REF203          'O1PU1<G> T.C.R.A.S. Class: 6, from SSUB, id to Tbase'
REF204          'O2PU1<G> T.C.R.A.S. Class: 7 PLUTONIUM DIOXIDE <GAS>, from 
                 SSUB, id to Tbase'
REF209          'O1U1<G> T.C.R.A.S Class: 6 Data provided by T.C.R.A.S. in 
                 2000, from SSUB, different of Tbase'
REF210          'O2U1<G> T.C.R.A.S. Class: 6 URANIUM DIOXIDE <GAS>, from 
                 SSUB, slightly different of Tbase'
REF211          'O3U1<G> T.C.R.A.S Class: 6 Data provided by T.C.R.A.S. in 
                 2000, from SSUB, different of Tbase'
REF10           'A T Dinsdale, SGTE Data for Pure Elements, Calphad 15(1991)4 
                 p 317-425; also in NPL Report DMA(A)195 Rev. August 1990'
FOUQ            'P. Fouquet-Metivier et al, Calphad (2022)'
REF412          'C. Gueneau, N. Dupin, B. Sundman, C. Martial, J.-C. Dumas, 
                 S. Gosse, S. Chatain, F. De Bruycker, D. Manara, R.J.M. 
                 Konings, J. Nucl. Mat. 419 (1-3), 145-167 (2011); C-O-Pu-U'
REF37           'M. Kurata, Calphad, 23 (3-4), 305-337 1999'
REF115          '*** Not set by database or user'
REF92           'N. Dupin, Contrat CEA 4000294936/P5B73 Np-Pu Fuelbase, 
                 february REF115'
REF137          '*** Not set by database or user'

--->OC6:--->OC6:--->OC6:--->OC6:--->OC6:--->OC6:--->OC6:--->OC6:3Y Removed  1 gridpoints by merging
 3Y Composition set(s) created:            1
Gridmin:    7483 points   1.67E-02 s and      14 clockcycles, T= 1651.00
 3Y leaving global_gridmin
Phase change iteration:     4  -C1_MO2_AUTO#2
Equilibrium result:  19 its,  1.8386E-02 s,     19 cc, GS= -4.4415381E+05 J/mol
--->OC6:Equilibrium result:   9 its,  6.0800E-04 s,      1 cc, GS= -4.4415378E+05 J/mol
3Y Testing if any gridpoint is below the calculated equilibrium
--->OC6:--->OC6:3E allocating workspace:     122160          (   2160,   10000,    2)
 3E saving            3  symbols as texts
 3E used        12117  words out of       122160  for storing static data
 ceqrecsize not implemented          26
 3E Saving an equilibrium record requires     2854       0 words
 3E not storing unused equilibria from:            2
 3E Saving assessment record
 3E No experimental equilibrium range set
 3E allocating assessment head record          48
 3E no coefficients allocated
 3E no work array (assrec%wopt) allocated
Used    15059 words out of   122160,  12.33% for unformatted memory save
Written workspace      60236 bytes unformatted on ./OCoutput_matrix.OCU
--->OC6:--->OC6:Output on file: ./OCoutput_matrix.DAT
Output unit reset to screen:    6
--->OC6:--->OC6:
[OC output] ./OCoutput_matrix.DAT
----------------------------------------

%%%%%%%%%% OC output written: 2026-04-19  21h33

Output for equilibrium:   1, DEFAULT_EQUILIBRIUM          2026.04.19
Conditions .................................................:
  1:T=1651, 2:P=200000, 3:N(O)=0.663866, 4:N(PU)=.0963509, 5:N(U)=0.239784
 Degrees of freedom are   0

Some global data, reference state SER ......................:
T=   1651.00 K (  1377.85 C), P=  2.0000E+05 Pa, V=  0.0000E+00 m3
N=   1.0000E+00 moles, B=   9.1212E+01 g, RT=   1.3727E+04 J/mol
G= -4.44154E+05 J, G/N=-4.4415E+05 J/mol, H=-3.2174E+05 J, S= 7.414E+01 J/K

Some data for components ...................................:
Component name    Moles      Mole-fr  Chem.pot/RT  Activities  Ref.state
O                 6.6387E-01  0.66387 -1.7302E+01  3.0610E-08  GAS             
PU                9.6351E-02  0.09635 -3.4829E+01  7.4847E-16  SER (default)   
U                 2.3978E-01  0.23978 -3.5100E+01  5.7051E-16  SER (default)   

Some data for phases .......................................:
Name                Status Moles      Volume    Form.Units Cmp/FU dGm/RT  Comp:
C1_MO2#1................ E  1.000E+00  0.00E+00  3.36E-01    2.97  0.00E+00  X:
 O      6.63865E-01  U      2.39784E-01  PU     9.63508E-02


----------------------------------------

[OC parser] Parsed components
  O : moles=0.66387, x=0.66387, mu/RT=-17.302, activity=3.061e-08, ref=GAS
  Pu : moles=0.096351, x=0.09635, mu/RT=-34.829, activity=7.4847e-16, ref=SER (default)
  U : moles=0.23978, x=0.23978, mu/RT=-35.1, activity=5.7051e-16, ref=SER (default)

[OC parser] Parsed phases
  Phase condensed : moles=1, volume=0
    Elements
      O = 0.663865
      Pu = 0.0963508
      U = 0.239784
    Species
      C1_MO2 : moles=1, volume=0
        O = 0.663865
        Pu = 0.0963508
        U = 0.239784
OpenCalphad attempt for 'matrix' with WARM-START

[OC input] ./OCinput_matrix.OCM
----------------------------------------
r u ./OCoutput_matrix.OCU

set ref o gas * 100000

set c t=1651
set c p=268000
set c n(o)=0.664146
set c n(pu)=0.0959685
set c n(u)=0.239885
c e
c w

save u ./OCoutput_matrix Y

l /out=./OCoutput_matrix.DAT r 1

fin
----------------------------------------

3A unfished preparations for XTDB


Open Calphad (OC) software version   6.106 , linked 2026-04-16
with command line monitor version  73

This program is available with a GNU General Public License.
either version 2 of the License, or any later version.
It includes the General Thermodynamic Package, version GTP-3.31,
Hillert's equilibrium calculation algorithm version HMS-3.0 ,
step/map/plot software version SMP-2.30 using GNUPLOT 5.2 graphics.
Numerical routines are extracted from LAPACK and BLAS and
the assessment procedure uses LMDIF from ANL.

Linked with OpenMp for parallel execution
 Warning, no environment variable OCHOME and no help file
 Working directory is: /home/ecappellari/transparant/sciantix-official/regression/test_JOG_MOX/point_05_r_1p5mm
--->OC6:
Read unformatted file: This is a save file for OC version:     OCF-3.20
Generated:  2026.04.19 21h33

 3E reading unformatted:        15024           0           0
3E Addition type   1, Inden-Hillert magn model for BCC_A2
3E Addition type   1, Inden-Hillert magn model for FCC_A1
 3E no experimental data
 3E no coefficient values saved
 3E Read assessment record
 No coefficients allocated
--->OC6:--->OC6:--->OC6:--->OC6:--->OC6:--->OC6:--->OC6:--->OC6:--->OC6:3Y Removed  1 gridpoints by merging
Gridmin:    7483 points   1.66E-02 s and      14 clockcycles, T= 1651.00
 3Y leaving global_gridmin
Phase change iteration:     4  -C1_MO2_AUTO#2
Equilibrium result:  19 its,  1.8558E-02 s,     19 cc, GS= -4.4413782E+05 J/mol
--->OC6:Equilibrium result:   9 its,  6.1500E-04 s,      1 cc, GS= -4.4413779E+05 J/mol
3Y Testing if any gridpoint is below the calculated equilibrium
--->OC6:--->OC6:
Overwriting previous results on ./OCoutput_matrix.OCU
3E allocating workspace:     122160          (   2160,   10000,    2)
 3E saving            3  symbols as texts
 3E used        12117  words out of       122160  for storing static data
 ceqrecsize not implemented          26
 3E Saving an equilibrium record requires     2854       0 words
 3E not storing unused equilibria from:            2
 3E Saving assessment record
 3E No experimental equilibrium range set
 3E allocating assessment head record          48
 3E no coefficients allocated
 3E no work array (assrec%wopt) allocated
Used    15059 words out of   122160,  12.33% for unformatted memory save
Written workspace      60236 bytes unformatted on ./OCoutput_matrix.OCU
--->OC6:--->OC6:Output on file: ./OCoutput_matrix.DAT
Output unit reset to screen:    6
--->OC6:--->OC6:
[OC output] ./OCoutput_matrix.DAT
----------------------------------------

%%%%%%%%%% OC output written: 2026-04-19  21h33

Output for equilibrium:   1, DEFAULT_EQUILIBRIUM          2026.04.19
Conditions .................................................:
  1:T=1651, 2:P=268000, 3:N(O)=0.664146, 4:N(PU)=.0959685, 5:N(U)=0.239885
 Degrees of freedom are   0

Some global data, reference state SER ......................:
T=   1651.00 K (  1377.85 C), P=  2.6800E+05 Pa, V=  0.0000E+00 m3
N=   1.0000E+00 moles, B=   9.1148E+01 g, RT=   1.3727E+04 J/mol
G= -4.44138E+05 J, G/N=-4.4414E+05 J/mol, H=-3.2183E+05 J, S= 7.408E+01 J/K

Some data for components ...................................:
Component name    Moles      Mole-fr  Chem.pot/RT  Activities  Ref.state
O                 6.6415E-01  0.66415 -1.7267E+01  3.1711E-08  GAS             
PU                9.5968E-02  0.09597 -3.5180E+01  5.2688E-16  SER (default)   
U                 2.3989E-01  0.23989 -3.5462E+01  3.9715E-16  SER (default)   

Some data for phases .......................................:
Name                Status Moles      Volume    Form.Units Cmp/FU dGm/RT  Comp:
C1_MO2#1................ E  1.000E+00  0.00E+00  3.36E-01    2.98  0.00E+00  X:
 O      6.64146E-01  U      2.39885E-01  PU     9.59685E-02


----------------------------------------

[OC parser] Parsed components
  O : moles=0.66415, x=0.66415, mu/RT=-17.267, activity=3.1711e-08, ref=GAS
  Pu : moles=0.095968, x=0.09597, mu/RT=-35.18, activity=5.2688e-16, ref=SER (default)
  U : moles=0.23989, x=0.23989, mu/RT=-35.462, activity=3.9715e-16, ref=SER (default)

[OC parser] Parsed phases
  Phase condensed : moles=1, volume=0
    Elements
      O = 0.664146
      Pu = 0.0959685
      U = 0.239885
    Species
      C1_MO2 : moles=1, volume=0
        O = 0.664146
        Pu = 0.0959685
        U = 0.239885
OpenCalphad attempt for 'matrix' with WARM-START

[OC input] ./OCinput_matrix.OCM
----------------------------------------
r u ./OCoutput_matrix.OCU

set ref o gas * 100000

set c t=1651
set c p=336000
set c n(o)=0.664428
set c n(pu)=0.0955858
set c n(u)=0.239987
c e
c w

save u ./OCoutput_matrix Y

l /out=./OCoutput_matrix.DAT r 1

fin
----------------------------------------

3A unfished preparations for XTDB


Open Calphad (OC) software version   6.106 , linked 2026-04-16
with command line monitor version  73

This program is available with a GNU General Public License.
either version 2 of the License, or any later version.
It includes the General Thermodynamic Package, version GTP-3.31,
Hillert's equilibrium calculation algorithm version HMS-3.0 ,
step/map/plot software version SMP-2.30 using GNUPLOT 5.2 graphics.
Numerical routines are extracted from LAPACK and BLAS and
the assessment procedure uses LMDIF from ANL.

Linked with OpenMp for parallel execution
 Warning, no environment variable OCHOME and no help file
 Working directory is: /home/ecappellari/transparant/sciantix-official/regression/test_JOG_MOX/point_05_r_1p5mm
--->OC6:
Read unformatted file: This is a save file for OC version:     OCF-3.20
Generated:  2026.04.19 21h33

 3E reading unformatted:        15024           0           0
3E Addition type   1, Inden-Hillert magn model for BCC_A2
3E Addition type   1, Inden-Hillert magn model for FCC_A1
 3E no experimental data
 3E no coefficient values saved
 3E Read assessment record
 No coefficients allocated
--->OC6:--->OC6:--->OC6:--->OC6:--->OC6:--->OC6:--->OC6:--->OC6:--->OC6:3Y Removed  1 gridpoints by merging
Gridmin:    7483 points   1.70E-02 s and      15 clockcycles, T= 1651.00
 3Y leaving global_gridmin
Phase change iteration:     4  -C1_MO2_AUTO#2
Equilibrium result:  19 its,  1.8510E-02 s,     19 cc, GS= -4.4412089E+05 J/mol
--->OC6:Equilibrium result:   9 its,  6.4200E-04 s,      0 cc, GS= -4.4412087E+05 J/mol
3Y Testing if any gridpoint is below the calculated equilibrium
--->OC6:--->OC6:
Overwriting previous results on ./OCoutput_matrix.OCU
3E allocating workspace:     122160          (   2160,   10000,    2)
 3E saving            3  symbols as texts
 3E used        12117  words out of       122160  for storing static data
 ceqrecsize not implemented          26
 3E Saving an equilibrium record requires     2854       0 words
 3E not storing unused equilibria from:            2
 3E Saving assessment record
 3E No experimental equilibrium range set
 3E allocating assessment head record          48
 3E no coefficients allocated
 3E no work array (assrec%wopt) allocated
Used    15059 words out of   122160,  12.33% for unformatted memory save
Written workspace      60236 bytes unformatted on ./OCoutput_matrix.OCU
--->OC6:--->OC6:Output on file: ./OCoutput_matrix.DAT
Output unit reset to screen:    6
--->OC6:--->OC6:
[OC output] ./OCoutput_matrix.DAT
----------------------------------------

%%%%%%%%%% OC output written: 2026-04-19  21h33

Output for equilibrium:   1, DEFAULT_EQUILIBRIUM          2026.04.19
Conditions .................................................:
  1:T=1651, 2:P=336000, 3:N(O)=0.664428, 4:N(PU)=.0955858, 5:N(U)=0.239987
 Degrees of freedom are   0

Some global data, reference state SER ......................:
T=   1651.00 K (  1377.85 C), P=  3.3600E+05 Pa, V=  0.0000E+00 m3
N=   1.0000E+00 moles, B=   9.1083E+01 g, RT=   1.3727E+04 J/mol
G= -4.44121E+05 J, G/N=-4.4412E+05 J/mol, H=-3.2192E+05 J, S= 7.402E+01 J/K

Some data for components ...................................:
Component name    Moles      Mole-fr  Chem.pot/RT  Activities  Ref.state
O                 6.6443E-01  0.66443 -1.7184E+01  3.4439E-08  GAS             
PU                9.5586E-02  0.09559 -3.5558E+01  3.6076E-16  SER (default)   
U                 2.3999E-01  0.23999 -3.5853E+01  2.6882E-16  SER (default)   

Some data for phases .......................................:
Name                Status Moles      Volume    Form.Units Cmp/FU dGm/RT  Comp:
C1_MO2#1................ E  1.000E+00  0.00E+00  3.36E-01    2.98  0.00E+00  X:
 O      6.64427E-01  U      2.39987E-01  PU     9.55857E-02


----------------------------------------

[OC parser] Parsed components
  O : moles=0.66443, x=0.66443, mu/RT=-17.184, activity=3.4439e-08, ref=GAS
  Pu : moles=0.095586, x=0.09559, mu/RT=-35.558, activity=3.6076e-16, ref=SER (default)
  U : moles=0.23999, x=0.23999, mu/RT=-35.853, activity=2.6882e-16, ref=SER (default)

[OC parser] Parsed phases
  Phase condensed : moles=1, volume=0
    Elements
      O = 0.664427
      Pu = 0.0955857
      U = 0.239987
    Species
      C1_MO2 : moles=1, volume=0
        O = 0.664427
        Pu = 0.0955857
        U = 0.239987
OpenCalphad attempt for 'at grain boundary' with WARM-START

[OC input] ./OCinput_fission_products.OCM
----------------------------------------
@$ Initialize variables:
r t /home/ecappellari/transparant/opencalphad/data/CsMoO_TAFID_2021_Anna cs mo o

set ref o gas * 100000

set c t=1651
set c p=336000
set c n(cs)=4.80723e-05
set c n(mo)=9.00318e-05
set c n(o)=0.999862
c e
set c n(o)=none
set c mu(o)=-471766

c w

save u ./OCoutput_fission_products Y

l /out=./OCoutput_fission_products.DAT r 1

fin
----------------------------------------

3A unfished preparations for XTDB


Open Calphad (OC) software version   6.106 , linked 2026-04-16
with command line monitor version  73

This program is available with a GNU General Public License.
either version 2 of the License, or any later version.
It includes the General Thermodynamic Package, version GTP-3.31,
Hillert's equilibrium calculation algorithm version HMS-3.0 ,
step/map/plot software version SMP-2.30 using GNUPLOT 5.2 graphics.
Numerical routines are extracted from LAPACK and BLAS and
the assessment procedure uses LMDIF from ANL.

Linked with OpenMp for parallel execution
 Warning, no environment variable OCHOME and no help file
 Working directory is: /home/ecappellari/transparant/sciantix-official/regression/test_JOG_MOX/point_05_r_1p5mm
--->OC6:--->OC6: 3E Database file extention is: ".tdb"
Database has  3 elements: CS MO O 
Give the elements to select, finish with empty line
Selected  3 elements: CS MO O 
Select elements /no more/:Selected  3 elements: CS MO O 
3E reading database file: /home/ecappellari/transparant/opencalphad/data/CsMoO_TAFID_2021_Anna.TDB

Out of    82 model parameters    82 have been entered


There are     1 bibliographic references
REF0            '*** Not set by database or user'

--->OC6:--->OC6:--->OC6:--->OC6:--->OC6:--->OC6:--->OC6:--->OC6: 3Y Composition set(s) created:            1
Gridmin:    9683 points   1.92E-02 s and      19 clockcycles, T= 1651.00
 3Y leaving global_gridmin
Phase change iteration:     4  -LIQUID_AUTO#2
Phase change iteration:     5  +LIQUID_AUTO#2
Phase change iteration:    10  -LIQUID_AUTO#2
Phase change iteration:    17  -LIQUID#1
Equilibrium result:  37 its,  2.2176E-02 s,     22 cc, GS= -1.8459666E+05 J/mol
--->OC6:--->OC6:--->OC6:--->OC6:Phase change iteration:     4  +HCP_A3
Equilibrium result:  23 its,  1.7110E-03 s,      2 cc, GS= -1.7691153E+01 J/mol
3Y Testing if any gridpoint is below the calculated equilibrium
 3Y Equilibrium wrong, gridtest found BCC_A2                  
 3Y recalculate with:           39           2          40
 MM recalculating with this phase as stable 2:           39
MM Calculate with activity condition
Phase change iteration:     4  -BCC_A2_CHKD#2
Phase change iteration:     5  +BCC_A2_CHKD#2
Phase change iteration:     8  +BCC_A2_CHKD#2
Phase change iteration:     9  +BCC_A2_CHKD#2
Phase change iteration:    10  +BCC_A2_CHKD#2
MM Too many stable phases at iter  10, phase  27 replaced by   5, T=  1651.00
Equilibrium result:  19 its,  2.8080E-02 s,     29 cc, GS= -1.8684542E+01 J/mol
3Y Testing if any gridpoint is below the calculated equilibrium
--->OC6:--->OC6:3E allocating workspace:     123330          (   3330,   10000,    2)
 3E saving            3  symbols as texts
 3E used        12291  words out of       123330  for storing static data
 ceqrecsize not implemented          40
 3E Saving an equilibrium record requires     4303       0 words
 3E not storing unused equilibria from:            2
 3E Saving assessment record
 3E No experimental equilibrium range set
 3E allocating assessment head record          48
 3E no coefficients allocated
 3E no work array (assrec%wopt) allocated
Used    16682 words out of   123330,  13.53% for unformatted memory save
Written workspace      66728 bytes unformatted on ./OCoutput_fission_products.OCU
--->OC6:--->OC6:Output on file: ./OCoutput_fission_products.DAT
Output unit reset to screen:    6
--->OC6:--->OC6:
[OC output] ./OCoutput_fission_products.DAT
----------------------------------------

%%%%%%%%%% OC output written: 2026-04-19  21h33

Output for equilibrium:   1, DEFAULT_EQUILIBRIUM          2026.04.19
Conditions .................................................:
  1:T=1651, 2:P=336000, 3:N(CS)=4.80723E-05, 4:N(MO)=9.00318E-05, 5:MU(O)=
    -471766
 Degrees of freedom are   0

Some global data, reference state SER ......................:
T=   1651.00 K (  1377.85 C), P=  3.3600E+05 Pa, V=  1.9253E-06 m3
N=   1.3810E-04 moles, B=   1.5027E-02 g, RT=   1.3727E+04 J/mol
G= -1.86845E+01 J, G/N=-1.3529E+05 J/mol, H= 8.4476E+00 J, S= 1.643E-02 J/K

Some data for components ...................................:
Component name    Moles      Mole-fr  Chem.pot/RT  Activities  Ref.state
CS                4.8072E-05  0.34809 -1.6583E+01  6.2805E-08  SER (default)   
MO                9.0032E-05  0.65191 -6.2637E+00  1.9042E-03  SER (default)   
O                 4.1602E-16  0.00000 -3.4367E+01  1.1873E-15  GAS             

Some data for phases .......................................:
Name                Status Moles      Volume    Form.Units Cmp/FU dGm/RT  Comp:
GAS..................... E  4.795E-05  1.93E-06  4.71E-05    1.02  0.00E+00  X:
 CS     1.00000E+00  O      2.47040E-12  MO     2.58961E-14
Constitution: There are    18 constituents:
 CS           9.82476E-01  MO2          7.65319E-21  MO3O9        1.00000E-30
 CS2          1.75236E-02  MOO          1.47083E-21  MOO3         1.00000E-30
 CS2O         2.51175E-12  CS2O2        6.74817E-28  MO2O6        1.00000E-30
 MO           2.63499E-14  MOO2         2.27259E-28  MO5O15       1.00000E-30
 CSO          1.93331E-15  O2           1.40966E-30  O3           1.00000E-30
 O            1.69626E-20  MO4O12       1.00000E-30  CS2MOO4      1.00000E-30

BCC_A2_CHKD#2........... E  9.015E-05  0.00E+00  9.02E-05    1.00  0.00E+00  X:
 MO     9.98668E-01  CS     1.33206E-03  O      3.30066E-12


----------------------------------------

[OC parser] Parsed components
  Cs : moles=4.8072e-05, x=0.34809, mu/RT=-16.583, activity=6.2805e-08, ref=SER (default)
  Mo : moles=9.0032e-05, x=0.65191, mu/RT=-6.2637, activity=0.0019042, ref=SER (default)
  O : moles=4.1602e-16, x=0, mu/RT=-34.367, activity=1.1873e-15, ref=GAS

[OC parser] Parsed phases
  Phase condensed : moles=9.015e-05, volume=0
    Elements
      Cs = 1.20085e-07
      Mo = 9.00299e-05
      O = 2.97554e-16
    Species
      BCC_A2 : moles=9.015e-05, volume=0
        Cs = 1.20085e-07
        Mo = 9.00299e-05
        O = 2.97554e-16
  Phase gas : moles=4.795e-05, volume=1.93e-06
    Elements
      Cs = 4.795e-05
      Mo = 1.24172e-18
      O = 1.18456e-16
    Species
      CS : moles=4.71097e-05, volume=0
      CS2 : moles=8.40257e-07, volume=0
      CS2MOO4 : moles=4.795e-35, volume=0
      CS2O : moles=1.20438e-16, volume=0
      CS2O2 : moles=3.23575e-32, volume=0
      CSO : moles=9.27022e-20, volume=0
      MO : moles=1.26348e-18, volume=0
      MO2 : moles=3.6697e-25, volume=0
      MO2O6 : moles=4.795e-35, volume=0
      MO3O9 : moles=4.795e-35, volume=0
      MO4O12 : moles=4.795e-35, volume=0
      MO5O15 : moles=4.795e-35, volume=0
      MOO : moles=7.05263e-26, volume=0
      MOO2 : moles=1.08971e-32, volume=0
      MOO3 : moles=4.795e-35, volume=0
      O : moles=8.13357e-25, volume=0
      O2 : moles=6.75932e-35, volume=0
      O3 : moles=4.795e-35, volume=0
      are : moles=0.0008631, volume=0
OpenCalphad attempt for 'matrix' with WARM-START

[OC input] ./OCinput_matrix.OCM
----------------------------------------
r u ./OCoutput_matrix.OCU

set ref o gas * 100000

set c t=1651
set c p=404000
set c n(o)=0.664709
set c n(pu)=0.0952027
set c n(u)=0.240088
c e
c w

save u ./OCoutput_matrix Y

l /out=./OCoutput_matrix.DAT r 1

fin
----------------------------------------

3A unfished preparations for XTDB


Open Calphad (OC) software version   6.106 , linked 2026-04-16
with command line monitor version  73

This program is available with a GNU General Public License.
either version 2 of the License, or any later version.
It includes the General Thermodynamic Package, version GTP-3.31,
Hillert's equilibrium calculation algorithm version HMS-3.0 ,
step/map/plot software version SMP-2.30 using GNUPLOT 5.2 graphics.
Numerical routines are extracted from LAPACK and BLAS and
the assessment procedure uses LMDIF from ANL.

Linked with OpenMp for parallel execution
 Warning, no environment variable OCHOME and no help file
 Working directory is: /home/ecappellari/transparant/sciantix-official/regression/test_JOG_MOX/point_05_r_1p5mm
--->OC6:
Read unformatted file: This is a save file for OC version:     OCF-3.20
Generated:  2026.04.19 21h33

 3E reading unformatted:        15024           0           0
3E Addition type   1, Inden-Hillert magn model for BCC_A2
3E Addition type   1, Inden-Hillert magn model for FCC_A1
 3E no experimental data
 3E no coefficient values saved
 3E Read assessment record
 No coefficients allocated
--->OC6:--->OC6:--->OC6:--->OC6:--->OC6:--->OC6:--->OC6:--->OC6:--->OC6:3Y Removed  1 gridpoints by merging
Gridmin:    7483 points   1.65E-02 s and      14 clockcycles, T= 1651.00
 3Y leaving global_gridmin
Phase change iteration:     4  -C1_MO2_AUTO#2
Equilibrium result:  19 its,  1.8038E-02 s,     18 cc, GS= -4.4410056E+05 J/mol
--->OC6:Equilibrium result:   9 its,  6.2100E-04 s,      1 cc, GS= -4.4410053E+05 J/mol
3Y Testing if any gridpoint is below the calculated equilibrium
--->OC6:--->OC6:
Overwriting previous results on ./OCoutput_matrix.OCU
3E allocating workspace:     122160          (   2160,   10000,    2)
 3E saving            3  symbols as texts
 3E used        12117  words out of       122160  for storing static data
 ceqrecsize not implemented          26
 3E Saving an equilibrium record requires     2854       0 words
 3E not storing unused equilibria from:            2
 3E Saving assessment record
 3E No experimental equilibrium range set
 3E allocating assessment head record          48
 3E no coefficients allocated
 3E no work array (assrec%wopt) allocated
Used    15059 words out of   122160,  12.33% for unformatted memory save
Written workspace      60236 bytes unformatted on ./OCoutput_matrix.OCU
--->OC6:--->OC6:Output on file: ./OCoutput_matrix.DAT
Output unit reset to screen:    6
--->OC6:--->OC6:
[OC output] ./OCoutput_matrix.DAT
----------------------------------------

%%%%%%%%%% OC output written: 2026-04-19  21h33

Output for equilibrium:   1, DEFAULT_EQUILIBRIUM          2026.04.19
Conditions .................................................:
  1:T=1651, 2:P=404000, 3:N(O)=0.664709, 4:N(PU)=.0952027, 5:N(U)=0.240088
 Degrees of freedom are   0

Some global data, reference state SER ......................:
T=   1651.00 K (  1377.85 C), P=  4.0400E+05 Pa, V=  0.0000E+00 m3
N=   1.0000E+00 moles, B=   9.1018E+01 g, RT=   1.3727E+04 J/mol
G= -4.44101E+05 J, G/N=-4.4410E+05 J/mol, H=-3.2200E+05 J, S= 7.396E+01 J/K

Some data for components ...................................:
Component name    Moles      Mole-fr  Chem.pot/RT  Activities  Ref.state
O                 6.6471E-01  0.66471 -1.7063E+01  3.8864E-08  GAS             
PU                9.5203E-02  0.09520 -3.5972E+01  2.3859E-16  SER (default)   
U                 2.4009E-01  0.24009 -3.6278E+01  1.7566E-16  SER (default)   

Some data for phases .......................................:
Name                Status Moles      Volume    Form.Units Cmp/FU dGm/RT  Comp:
C1_MO2#1................ E  1.000E+00  0.00E+00  3.35E-01    2.98  0.00E+00  X:
 O      6.64709E-01  U      2.40088E-01  PU     9.52027E-02


----------------------------------------

[OC parser] Parsed components
  O : moles=0.66471, x=0.66471, mu/RT=-17.063, activity=3.8864e-08, ref=GAS
  Pu : moles=0.095203, x=0.0952, mu/RT=-35.972, activity=2.3859e-16, ref=SER (default)
  U : moles=0.24009, x=0.24009, mu/RT=-36.278, activity=1.7566e-16, ref=SER (default)

[OC parser] Parsed phases
  Phase condensed : moles=1, volume=0
    Elements
      O = 0.664709
      Pu = 0.0952027
      U = 0.240088
    Species
      C1_MO2 : moles=1, volume=0
        O = 0.664709
        Pu = 0.0952027
        U = 0.240088
OpenCalphad attempt for 'at grain boundary' with WARM-START

[OC input] ./OCinput_fission_products.OCM
----------------------------------------
r u ./OCoutput_fission_products.OCU

set ref o gas * 100000

set c t=1651
set c p=404000
set c n(cs)=6.12284e-05
set c n(mo)=0.000154578
set c n(o)=0.999784
c e
set c n(o)=none
set c mu(o)=-468445

c w

save u ./OCoutput_fission_products Y

l /out=./OCoutput_fission_products.DAT r 1

fin
----------------------------------------

3A unfished preparations for XTDB


Open Calphad (OC) software version   6.106 , linked 2026-04-16
with command line monitor version  73

This program is available with a GNU General Public License.
either version 2 of the License, or any later version.
It includes the General Thermodynamic Package, version GTP-3.31,
Hillert's equilibrium calculation algorithm version HMS-3.0 ,
step/map/plot software version SMP-2.30 using GNUPLOT 5.2 graphics.
Numerical routines are extracted from LAPACK and BLAS and
the assessment procedure uses LMDIF from ANL.

Linked with OpenMp for parallel execution
 Warning, no environment variable OCHOME and no help file
 Working directory is: /home/ecappellari/transparant/sciantix-official/regression/test_JOG_MOX/point_05_r_1p5mm
--->OC6:
Read unformatted file: This is a save file for OC version:     OCF-3.20
Generated:  2026.04.19 21h33

 3E reading unformatted:        16647           0           0
3E Addition type   1, Inden-Hillert magn model for BCC_A2
3E Addition type   1, Inden-Hillert magn model for FCC_A1
3E Addition type   1, Inden-Hillert magn model for HCP_A3
 3E no experimental data
 3E no coefficient values saved
 3E Read assessment record
 No coefficients allocated
--->OC6:--->OC6:--->OC6:--->OC6:--->OC6:--->OC6:--->OC6:--->OC6:--->OC6:
Error codes:   4144     0    50
Message: Degrees of freedom not zero

--->OC6:--->OC6:--->OC6:--->OC6:Equilibrium result:  10 its,  8.4900E-04 s,      0 cc, GS= -2.7077907E+01 J/mol
3Y Testing if any gridpoint is below the calculated equilibrium
--->OC6:--->OC6:
Overwriting previous results on ./OCoutput_fission_products.OCU
3E allocating workspace:     123330          (   3330,   10000,    2)
 3E saving            3  symbols as texts
 3E used        12291  words out of       123330  for storing static data
 ceqrecsize not implemented          40
 3E Saving an equilibrium record requires     4302       0 words
 3E not storing unused equilibria from:            2
 3E Saving assessment record
 3E No experimental equilibrium range set
 3E allocating assessment head record          48
 3E no coefficients allocated
 3E no work array (assrec%wopt) allocated
Used    16681 words out of   123330,  13.53% for unformatted memory save
Written workspace      66724 bytes unformatted on ./OCoutput_fission_products.OCU
--->OC6:--->OC6:Output on file: ./OCoutput_fission_products.DAT
Output unit reset to screen:    6
--->OC6:--->OC6:
[OC output] ./OCoutput_fission_products.DAT
----------------------------------------

%%%%%%%%%% OC output written: 2026-04-19  21h33

Output for equilibrium:   1, DEFAULT_EQUILIBRIUM          2026.04.19
Conditions .................................................:
  1:T=1651, 2:P=404000, 3:N(CS)=6.12284E-05, 4:N(MO)=.000154578, 5:MU(O)=
    -468445
 Degrees of freedom are   0

Some global data, reference state SER ......................:
T=   1651.00 K (  1377.85 C), P=  4.0400E+05 Pa, V=  2.0296E-06 m3
N=   2.1581E-04 moles, B=   2.2968E-02 g, RT=   1.3727E+04 J/mol
G= -2.70779E+01 J, G/N=-1.2547E+05 J/mol, H= 1.2283E+01 J, S= 2.384E-02 J/K

Some data for components ...................................:
Component name    Moles      Mole-fr  Chem.pot/RT  Activities  Ref.state
CS                6.1228E-05  0.28372 -1.6402E+01  7.5254E-08  SER (default)   
MO                1.5458E-04  0.71628 -6.2640E+00  1.9037E-03  SER (default)   
O                 7.6139E-16  0.00000 -3.4125E+01  1.5123E-15  GAS             

Some data for phases .......................................:
Name                Status Moles      Volume    Form.Units Cmp/FU dGm/RT  Comp:
GAS..................... E  6.098E-05  2.03E-06  5.97E-05    1.02  0.00E+00  X:
 CS     1.00000E+00  O      4.10564E-12  MO     2.14599E-14
Constitution: There are    18 constituents:
 CS           9.79076E-01  MO2          6.36166E-21  MO3O9        1.00000E-30
 CS2          2.09244E-02  MOO          1.70803E-21  MOO3         1.00000E-30
 CS2O         4.18886E-12  CS2O2        1.57179E-27  MO2O6        1.00000E-30
 MO           2.19089E-14  MOO2         3.68588E-28  MO5O15       1.00000E-30
 CSO          2.69082E-15  O2           2.28692E-30  O3           1.00000E-30
 O            1.97034E-20  MO4O12       1.00000E-30  CS2MOO4      1.00000E-30

BCC_A2_CHKD#2........... E  1.548E-04  0.00E+00  1.55E-04    1.00  0.00E+00  X:
 MO     9.98401E-01  CS     1.59921E-03  O      3.30066E-12


----------------------------------------

[OC parser] Parsed components
  Cs : moles=6.1228e-05, x=0.28372, mu/RT=-16.402, activity=7.5254e-08, ref=SER (default)
  Mo : moles=0.00015458, x=0.71628, mu/RT=-6.264, activity=0.0019037, ref=SER (default)
  O : moles=7.6139e-16, x=0, mu/RT=-34.125, activity=1.5123e-15, ref=GAS

[OC parser] Parsed phases
  Phase condensed : moles=0.0001548, volume=0
    Elements
      Cs = 2.47558e-07
      Mo = 0.000154552
      O = 5.10942e-16
    Species
      BCC_A2 : moles=0.0001548, volume=0
        Cs = 2.47558e-07
        Mo = 0.000154552
        O = 5.10942e-16
  Phase gas : moles=6.098e-05, volume=2.03e-06
    Elements
      Cs = 6.098e-05
      Mo = 1.30862e-18
      O = 2.50362e-16
    Species
      CS : moles=5.97041e-05, volume=0
      CS2 : moles=1.27597e-06, volume=0
      CS2MOO4 : moles=6.098e-35, volume=0
      CS2O : moles=2.55437e-16, volume=0
      CS2O2 : moles=9.58478e-32, volume=0
      CSO : moles=1.64086e-19, volume=0
      MO : moles=1.336e-18, volume=0
      MO2 : moles=3.87934e-25, volume=0
      MO2O6 : moles=6.098e-35, volume=0
      MO3O9 : moles=6.098e-35, volume=0
      MO4O12 : moles=6.098e-35, volume=0
      MO5O15 : moles=6.098e-35, volume=0
      MOO : moles=1.04156e-25, volume=0
      MOO2 : moles=2.24765e-32, volume=0
      MOO3 : moles=6.098e-35, volume=0
      O : moles=1.20151e-24, volume=0
      O2 : moles=1.39456e-34, volume=0
      O3 : moles=6.098e-35, volume=0
      are : moles=0.00109764, volume=0
OpenCalphad attempt for 'matrix' with WARM-START

[OC input] ./OCinput_matrix.OCM
----------------------------------------
r u ./OCoutput_matrix.OCU

set ref o gas * 100000

set c t=1651
set c p=472000
set c n(o)=0.664991
set c n(pu)=0.0948194
set c n(u)=0.24019
c e
c w

save u ./OCoutput_matrix Y

l /out=./OCoutput_matrix.DAT r 1

fin
----------------------------------------

3A unfished preparations for XTDB


Open Calphad (OC) software version   6.106 , linked 2026-04-16
with command line monitor version  73

This program is available with a GNU General Public License.
either version 2 of the License, or any later version.
It includes the General Thermodynamic Package, version GTP-3.31,
Hillert's equilibrium calculation algorithm version HMS-3.0 ,
step/map/plot software version SMP-2.30 using GNUPLOT 5.2 graphics.
Numerical routines are extracted from LAPACK and BLAS and
the assessment procedure uses LMDIF from ANL.

Linked with OpenMp for parallel execution
 Warning, no environment variable OCHOME and no help file
 Working directory is: /home/ecappellari/transparant/sciantix-official/regression/test_JOG_MOX/point_05_r_1p5mm
--->OC6:
Read unformatted file: This is a save file for OC version:     OCF-3.20
Generated:  2026.04.19 21h33

 3E reading unformatted:        15024           0           0
3E Addition type   1, Inden-Hillert magn model for BCC_A2
3E Addition type   1, Inden-Hillert magn model for FCC_A1
 3E no experimental data
 3E no coefficient values saved
 3E Read assessment record
 No coefficients allocated
--->OC6:--->OC6:--->OC6:--->OC6:--->OC6:--->OC6:--->OC6:--->OC6:--->OC6:3Y Removed  1 gridpoints by merging
Gridmin:    7483 points   1.65E-02 s and      14 clockcycles, T= 1651.00
 3Y leaving global_gridmin
Phase change iteration:     4  -C1_MO2_AUTO#2
Equilibrium result:  18 its,  1.7981E-02 s,     18 cc, GS= -4.4407852E+05 J/mol
--->OC6:Equilibrium result:   9 its,  6.1900E-04 s,      1 cc, GS= -4.4407850E+05 J/mol
3Y Testing if any gridpoint is below the calculated equilibrium
--->OC6:--->OC6:
Overwriting previous results on ./OCoutput_matrix.OCU
3E allocating workspace:     122160          (   2160,   10000,    2)
 3E saving            3  symbols as texts
 3E used        12117  words out of       122160  for storing static data
 ceqrecsize not implemented          26
 3E Saving an equilibrium record requires     2854       0 words
 3E not storing unused equilibria from:            2
 3E Saving assessment record
 3E No experimental equilibrium range set
 3E allocating assessment head record          48
 3E no coefficients allocated
 3E no work array (assrec%wopt) allocated
Used    15059 words out of   122160,  12.33% for unformatted memory save
Written workspace      60236 bytes unformatted on ./OCoutput_matrix.OCU
--->OC6:--->OC6:Output on file: ./OCoutput_matrix.DAT
Output unit reset to screen:    6
--->OC6:--->OC6:
[OC output] ./OCoutput_matrix.DAT
----------------------------------------

%%%%%%%%%% OC output written: 2026-04-19  21h33

Output for equilibrium:   1, DEFAULT_EQUILIBRIUM          2026.04.19
Conditions .................................................:
  1:T=1651, 2:P=472000, 3:N(O)=0.664991, 4:N(PU)=.0948194, 5:N(U)=0.24019
 Degrees of freedom are   0

Some global data, reference state SER ......................:
T=   1651.00 K (  1377.85 C), P=  4.7200E+05 Pa, V=  0.0000E+00 m3
N=   1.0000E+00 moles, B=   9.0953E+01 g, RT=   1.3727E+04 J/mol
G= -4.44078E+05 J, G/N=-4.4408E+05 J/mol, H=-3.2208E+05 J, S= 7.389E+01 J/K

Some data for components ...................................:
Component name    Moles      Mole-fr  Chem.pot/RT  Activities  Ref.state
O                 6.6499E-01  0.66499 -1.6906E+01  4.5464E-08  GAS             
PU                9.4819E-02  0.09482 -3.6428E+01  1.5114E-16  SER (default)   
U                 2.4019E-01  0.24019 -3.6747E+01  1.0990E-16  SER (default)   

Some data for phases .......................................:
Name                Status Moles      Volume    Form.Units Cmp/FU dGm/RT  Comp:
C1_MO2#1................ E  1.000E+00  0.00E+00  3.35E-01    2.98  0.00E+00  X:
 O      6.64991E-01  U      2.40190E-01  PU     9.48194E-02


----------------------------------------

[OC parser] Parsed components
  O : moles=0.66499, x=0.66499, mu/RT=-16.906, activity=4.5464e-08, ref=GAS
  Pu : moles=0.094819, x=0.09482, mu/RT=-36.428, activity=1.5114e-16, ref=SER (default)
  U : moles=0.24019, x=0.24019, mu/RT=-36.747, activity=1.099e-16, ref=SER (default)

[OC parser] Parsed phases
  Phase condensed : moles=1, volume=0
    Elements
      O = 0.664991
      Pu = 0.0948194
      U = 0.24019
    Species
      C1_MO2 : moles=1, volume=0
        O = 0.664991
        Pu = 0.0948194
        U = 0.24019
OpenCalphad attempt for 'at grain boundary' with WARM-START

[OC input] ./OCinput_fission_products.OCM
----------------------------------------
r u ./OCoutput_fission_products.OCU

set ref o gas * 100000

set c t=1651
set c p=472000
set c n(cs)=6.15052e-05
set c n(mo)=0.000227899
set c n(o)=0.999711
c e
set c n(o)=none
set c mu(o)=-464134

c w

save u ./OCoutput_fission_products Y

l /out=./OCoutput_fission_products.DAT r 1

fin
----------------------------------------

3A unfished preparations for XTDB


Open Calphad (OC) software version   6.106 , linked 2026-04-16
with command line monitor version  73

This program is available with a GNU General Public License.
either version 2 of the License, or any later version.
It includes the General Thermodynamic Package, version GTP-3.31,
Hillert's equilibrium calculation algorithm version HMS-3.0 ,
step/map/plot software version SMP-2.30 using GNUPLOT 5.2 graphics.
Numerical routines are extracted from LAPACK and BLAS and
the assessment procedure uses LMDIF from ANL.

Linked with OpenMp for parallel execution
 Warning, no environment variable OCHOME and no help file
 Working directory is: /home/ecappellari/transparant/sciantix-official/regression/test_JOG_MOX/point_05_r_1p5mm
--->OC6:
Read unformatted file: This is a save file for OC version:     OCF-3.20
Generated:  2026.04.19 21h33

 3E reading unformatted:        16646           0           0
3E Addition type   1, Inden-Hillert magn model for BCC_A2
3E Addition type   1, Inden-Hillert magn model for FCC_A1
3E Addition type   1, Inden-Hillert magn model for HCP_A3
 3E no experimental data
 3E no coefficient values saved
 3E Read assessment record
 No coefficients allocated
--->OC6:--->OC6:--->OC6:--->OC6:--->OC6:--->OC6:--->OC6:--->OC6:--->OC6:
Error codes:   4144     0    50
Message: Degrees of freedom not zero

--->OC6:--->OC6:--->OC6:--->OC6:Equilibrium result:  12 its,  9.7400E-04 s,      1 cc, GS= -3.3317278E+01 J/mol
3Y Testing if any gridpoint is below the calculated equilibrium
--->OC6:--->OC6:
Overwriting previous results on ./OCoutput_fission_products.OCU
3E allocating workspace:     123330          (   3330,   10000,    2)
 3E saving            3  symbols as texts
 3E used        12291  words out of       123330  for storing static data
 ceqrecsize not implemented          40
 3E Saving an equilibrium record requires     4302       0 words
 3E not storing unused equilibria from:            2
 3E Saving assessment record
 3E No experimental equilibrium range set
 3E allocating assessment head record          48
 3E no coefficients allocated
 3E no work array (assrec%wopt) allocated
Used    16681 words out of   123330,  13.53% for unformatted memory save
Written workspace      66724 bytes unformatted on ./OCoutput_fission_products.OCU
--->OC6:--->OC6:Output on file: ./OCoutput_fission_products.DAT
Output unit reset to screen:    6
--->OC6:--->OC6:
[OC output] ./OCoutput_fission_products.DAT
----------------------------------------

%%%%%%%%%% OC output written: 2026-04-19  21h33

Output for equilibrium:   1, DEFAULT_EQUILIBRIUM          2026.04.19
Conditions .................................................:
  1:T=1651, 2:P=472000, 3:N(CS)=6.15052E-05, 4:N(MO)=.000227899, 5:MU(O)=
    -464134
 Degrees of freedom are   0

Some global data, reference state SER ......................:
T=   1651.00 K (  1377.85 C), P=  4.7200E+05 Pa, V=  1.7343E-06 m3
N=   2.8940E-04 moles, B=   3.0039E-02 g, RT=   1.3727E+04 J/mol
G= -3.33173E+01 J, G/N=-1.1512E+05 J/mol, H= 1.5118E+01 J, S= 2.934E-02 J/K

Some data for components ...................................:
Component name    Moles      Mole-fr  Chem.pot/RT  Activities  Ref.state
CS                6.1505E-05  0.21252 -1.6250E+01  8.7619E-08  SER (default)   
MO                2.2790E-04  0.78748 -6.2642E+00  1.9032E-03  SER (default)   
O                 1.1827E-15  0.00000 -3.3811E+01  2.0702E-15  GAS             

Some data for phases .......................................:
Name                Status Moles      Volume    Form.Units Cmp/FU dGm/RT  Comp:
GAS..................... E  6.108E-05  1.73E-06  5.96E-05    1.02  0.00E+00  X:
 CS     1.00000E+00  O      7.02531E-12  MO     1.83032E-14
Constitution: There are    18 constituents:
 CS           9.75721E-01  MO2          5.44228E-21  MO3O9        1.00000E-30
 CS2          2.42791E-02  MOO          2.16266E-21  MOO3         1.00000E-30
 CS2O         7.19192E-12  CS2O2        3.99311E-27  MO2O6        1.00000E-30
 MO           1.87476E-14  MOO2         6.90564E-28  MO5O15       1.00000E-30
 CSO          3.96792E-15  O2           4.28576E-30  O3           1.00000E-30
 O            2.49545E-20  MO4O12       1.00000E-30  CS2MOO4      1.00000E-30

BCC_A2_CHKD#2........... E  2.283E-04  0.00E+00  2.28E-04    1.00  0.00E+00  X:
 MO     9.98134E-01  CS     1.86559E-03  O      3.30066E-12


----------------------------------------

[OC parser] Parsed components
  Cs : moles=6.1505e-05, x=0.21252, mu/RT=-16.25, activity=8.7619e-08, ref=SER (default)
  Mo : moles=0.0002279, x=0.78748, mu/RT=-6.2642, activity=0.0019032, ref=SER (default)
  O : moles=1.1827e-15, x=0, mu/RT=-33.811, activity=2.0702e-15, ref=GAS

[OC parser] Parsed phases
  Phase condensed : moles=0.0002283, volume=0
    Elements
      Cs = 4.25914e-07
      Mo = 0.000227874
      O = 7.53541e-16
    Species
      BCC_A2 : moles=0.0002283, volume=0
        Cs = 4.25914e-07
        Mo = 0.000227874
        O = 7.53541e-16
  Phase gas : moles=6.108e-05, volume=1.73e-06
    Elements
      Cs = 6.108e-05
      Mo = 1.11796e-18
      O = 4.29106e-16
    Species
      CS : moles=5.9597e-05, volume=0
      CS2 : moles=1.48297e-06, volume=0
      CS2MOO4 : moles=6.108e-35, volume=0
      CS2O : moles=4.39282e-16, volume=0
      CS2O2 : moles=2.43899e-31, volume=0
      CSO : moles=2.42361e-19, volume=0
      MO : moles=1.1451e-18, volume=0
      MO2 : moles=3.32414e-25, volume=0
      MO2O6 : moles=6.108e-35, volume=0
      MO3O9 : moles=6.108e-35, volume=0
      MO4O12 : moles=6.108e-35, volume=0
      MO5O15 : moles=6.108e-35, volume=0
      MOO : moles=1.32095e-25, volume=0
      MOO2 : moles=4.21796e-32, volume=0
      MOO3 : moles=6.108e-35, volume=0
      O : moles=1.52422e-24, volume=0
      O2 : moles=2.61774e-34, volume=0
      O3 : moles=6.108e-35, volume=0
      are : moles=0.00109944, volume=0
OpenCalphad attempt for 'matrix' with WARM-START

[OC input] ./OCinput_matrix.OCM
----------------------------------------
r u ./OCoutput_matrix.OCU

set ref o gas * 100000

set c t=1651
set c p=540000
set c n(o)=0.665273
set c n(pu)=0.0944357
set c n(u)=0.240292
c e
c w

save u ./OCoutput_matrix Y

l /out=./OCoutput_matrix.DAT r 1

fin
----------------------------------------

3A unfished preparations for XTDB


Open Calphad (OC) software version   6.106 , linked 2026-04-16
with command line monitor version  73

This program is available with a GNU General Public License.
either version 2 of the License, or any later version.
It includes the General Thermodynamic Package, version GTP-3.31,
Hillert's equilibrium calculation algorithm version HMS-3.0 ,
step/map/plot software version SMP-2.30 using GNUPLOT 5.2 graphics.
Numerical routines are extracted from LAPACK and BLAS and
the assessment procedure uses LMDIF from ANL.

Linked with OpenMp for parallel execution
 Warning, no environment variable OCHOME and no help file
 Working directory is: /home/ecappellari/transparant/sciantix-official/regression/test_JOG_MOX/point_05_r_1p5mm
--->OC6:
Read unformatted file: This is a save file for OC version:     OCF-3.20
Generated:  2026.04.19 21h33

 3E reading unformatted:        15024           0           0
3E Addition type   1, Inden-Hillert magn model for BCC_A2
3E Addition type   1, Inden-Hillert magn model for FCC_A1
 3E no experimental data
 3E no coefficient values saved
 3E Read assessment record
 No coefficients allocated
--->OC6:--->OC6:--->OC6:--->OC6:--->OC6:--->OC6:--->OC6:--->OC6:--->OC6:3Y Removed  1 gridpoints by merging
Gridmin:    7483 points   2.35E-02 s and      21 clockcycles, T= 1651.00
 3Y leaving global_gridmin
Phase change iteration:     5  -C1_MO2_AUTO#2
Equilibrium result:  18 its,  2.5162E-02 s,     25 cc, GS= -4.4405347E+05 J/mol
--->OC6:Equilibrium result:   9 its,  6.3500E-04 s,      1 cc, GS= -4.4405344E+05 J/mol
3Y Testing if any gridpoint is below the calculated equilibrium
--->OC6:--->OC6:
Overwriting previous results on ./OCoutput_matrix.OCU
3E allocating workspace:     122160          (   2160,   10000,    2)
 3E saving            3  symbols as texts
 3E used        12117  words out of       122160  for storing static data
 ceqrecsize not implemented          26
 3E Saving an equilibrium record requires     2854       0 words
 3E not storing unused equilibria from:            2
 3E Saving assessment record
 3E No experimental equilibrium range set
 3E allocating assessment head record          48
 3E no coefficients allocated
 3E no work array (assrec%wopt) allocated
Used    15059 words out of   122160,  12.33% for unformatted memory save
Written workspace      60236 bytes unformatted on ./OCoutput_matrix.OCU
--->OC6:--->OC6:Output on file: ./OCoutput_matrix.DAT
Output unit reset to screen:    6
--->OC6:--->OC6:
[OC output] ./OCoutput_matrix.DAT
----------------------------------------

%%%%%%%%%% OC output written: 2026-04-19  21h33

Output for equilibrium:   1, DEFAULT_EQUILIBRIUM          2026.04.19
Conditions .................................................:
  1:T=1651, 2:P=540000, 3:N(O)=0.665273, 4:N(PU)=.0944357, 5:N(U)=0.240292
 Degrees of freedom are   0

Some global data, reference state SER ......................:
T=   1651.00 K (  1377.85 C), P=  5.4000E+05 Pa, V=  0.0000E+00 m3
N=   1.0000E+00 moles, B=   9.0888E+01 g, RT=   1.3727E+04 J/mol
G= -4.44053E+05 J, G/N=-4.4405E+05 J/mol, H=-3.2216E+05 J, S= 7.383E+01 J/K

Some data for components ...................................:
Component name    Moles      Mole-fr  Chem.pot/RT  Activities  Ref.state
O                 6.6527E-01  0.66527 -1.6710E+01  5.5351E-08  GAS             
PU                9.4436E-02  0.09444 -3.6943E+01  9.0293E-17  SER (default)   
U                 2.4029E-01  0.24029 -3.7275E+01  6.4802E-17  SER (default)   

Some data for phases .......................................:
Name                Status Moles      Volume    Form.Units Cmp/FU dGm/RT  Comp:
C1_MO2#1................ E  1.000E+00  0.00E+00  3.35E-01    2.99  0.00E+00  X:
 O      6.65273E-01  U      2.40292E-01  PU     9.44356E-02


----------------------------------------

[OC parser] Parsed components
  O : moles=0.66527, x=0.66527, mu/RT=-16.71, activity=5.5351e-08, ref=GAS
  Pu : moles=0.094436, x=0.09444, mu/RT=-36.943, activity=9.0293e-17, ref=SER (default)
  U : moles=0.24029, x=0.24029, mu/RT=-37.275, activity=6.4802e-17, ref=SER (default)

[OC parser] Parsed phases
  Phase condensed : moles=1, volume=0
    Elements
      O = 0.665273
      Pu = 0.0944356
      U = 0.240292
    Species
      C1_MO2 : moles=1, volume=0
        O = 0.665273
        Pu = 0.0944356
        U = 0.240292
OpenCalphad attempt for 'at grain boundary' with WARM-START

[OC input] ./OCinput_fission_products.OCM
----------------------------------------
r u ./OCoutput_fission_products.OCU

set ref o gas * 100000

set c t=1651
set c p=540000
set c n(cs)=8.49068e-05
set c n(mo)=0.000308391
set c n(o)=0.999607
c e
set c n(o)=none
set c mu(o)=-458753

c w

save u ./OCoutput_fission_products Y

l /out=./OCoutput_fission_products.DAT r 1

fin
----------------------------------------

3A unfished preparations for XTDB


Open Calphad (OC) software version   6.106 , linked 2026-04-16
with command line monitor version  73

This program is available with a GNU General Public License.
either version 2 of the License, or any later version.
It includes the General Thermodynamic Package, version GTP-3.31,
Hillert's equilibrium calculation algorithm version HMS-3.0 ,
step/map/plot software version SMP-2.30 using GNUPLOT 5.2 graphics.
Numerical routines are extracted from LAPACK and BLAS and
the assessment procedure uses LMDIF from ANL.

Linked with OpenMp for parallel execution
 Warning, no environment variable OCHOME and no help file
 Working directory is: /home/ecappellari/transparant/sciantix-official/regression/test_JOG_MOX/point_05_r_1p5mm
--->OC6:
Read unformatted file: This is a save file for OC version:     OCF-3.20
Generated:  2026.04.19 21h33

 3E reading unformatted:        16646           0           0
3E Addition type   1, Inden-Hillert magn model for BCC_A2
3E Addition type   1, Inden-Hillert magn model for FCC_A1
3E Addition type   1, Inden-Hillert magn model for HCP_A3
 3E no experimental data
 3E no coefficient values saved
 3E Read assessment record
 No coefficients allocated
--->OC6:--->OC6:--->OC6:--->OC6:--->OC6:--->OC6:--->OC6:--->OC6:--->OC6:
Error codes:   4144     0    50
Message: Degrees of freedom not zero

--->OC6:--->OC6:--->OC6:--->OC6:Equilibrium result:  12 its,  1.1040E-03 s,      1 cc, GS= -4.5307282E+01 J/mol
3Y Testing if any gridpoint is below the calculated equilibrium
--->OC6:--->OC6:
Overwriting previous results on ./OCoutput_fission_products.OCU
3E allocating workspace:     123330          (   3330,   10000,    2)
 3E saving            3  symbols as texts
 3E used        12291  words out of       123330  for storing static data
 ceqrecsize not implemented          40
 3E Saving an equilibrium record requires     4302       0 words
 3E not storing unused equilibria from:            2
 3E Saving assessment record
 3E No experimental equilibrium range set
 3E allocating assessment head record          48
 3E no coefficients allocated
 3E no work array (assrec%wopt) allocated
Used    16681 words out of   123330,  13.53% for unformatted memory save
Written workspace      66724 bytes unformatted on ./OCoutput_fission_products.OCU
--->OC6:--->OC6:Output on file: ./OCoutput_fission_products.DAT
Output unit reset to screen:    6
--->OC6:--->OC6:
[OC output] ./OCoutput_fission_products.DAT
----------------------------------------

%%%%%%%%%% OC output written: 2026-04-19  21h33

Output for equilibrium:   1, DEFAULT_EQUILIBRIUM          2026.04.19
Conditions .................................................:
  1:T=1651, 2:P=540000, 3:N(CS)=8.49068E-05, 4:N(MO)=.000308391, 5:MU(O)=
    -458753
 Degrees of freedom are   0

Some global data, reference state SER ......................:
T=   1651.00 K (  1377.85 C), P=  5.4000E+05 Pa, V=  2.0842E-06 m3
N=   3.9330E-04 moles, B=   4.0872E-02 g, RT=   1.3727E+04 J/mol
G= -4.53073E+01 J, G/N=-1.1520E+05 J/mol, H= 2.0617E+01 J, S= 3.993E-02 J/K

Some data for components ...................................:
Component name    Moles      Mole-fr  Chem.pot/RT  Activities  Ref.state
CS                8.4907E-05  0.21588 -1.6119E+01  9.9902E-08  SER (default)   
MO                3.0839E-04  0.78412 -6.2645E+00  1.9027E-03  SER (default)   
O                 2.0812E-15  0.00000 -3.3419E+01  3.0638E-15  GAS             

Some data for phases .......................................:
Name                Status Moles      Volume    Form.Units Cmp/FU dGm/RT  Comp:
GAS..................... E  8.425E-05  2.08E-06  8.20E-05    1.03  0.00E+00  X:
 CS     1.00000E+00  O      1.25951E-11  MO     1.59427E-14
Constitution: There are    18 constituents:
 CS           9.72411E-01  MO2          4.75446E-21  MO3O9        1.00000E-30
 CS2          2.75888E-02  MOO          2.99151E-21  MOO3         1.00000E-30
 CS2O         1.29363E-11  CS2O2        1.13696E-26  MO2O6        1.00000E-30
 MO           1.63825E-14  MOO2         1.51207E-27  MO5O15       1.00000E-30
 CSO          6.25970E-15  O2           9.38663E-30  O3           1.00000E-30
 O            3.45274E-20  MO4O12       1.00000E-30  CS2MOO4      1.00000E-30

BCC_A2_CHKD#2........... E  3.090E-04  0.00E+00  3.09E-04    1.00  0.00E+00  X:
 MO     9.97869E-01  CS     2.13124E-03  O      3.30066E-12


----------------------------------------

[OC parser] Parsed components
  Cs : moles=8.4907e-05, x=0.21588, mu/RT=-16.119, activity=9.9902e-08, ref=SER (default)
  Mo : moles=0.00030839, x=0.78412, mu/RT=-6.2645, activity=0.0019027, ref=SER (default)
  O : moles=2.0812e-15, x=0, mu/RT=-33.419, activity=3.0638e-15, ref=GAS

[OC parser] Parsed phases
  Phase condensed : moles=0.000309, volume=0
    Elements
      Cs = 6.58553e-07
      Mo = 0.000308342
      O = 1.0199e-15
    Species
      BCC_A2 : moles=0.000309, volume=0
        Cs = 6.58553e-07
        Mo = 0.000308342
        O = 1.0199e-15
  Phase gas : moles=8.425e-05, volume=2.08e-06
    Elements
      Cs = 8.425e-05
      Mo = 1.34317e-18
      O = 1.06114e-15
    Species
      CS : moles=8.19256e-05, volume=0
      CS2 : moles=2.32436e-06, volume=0
      CS2MOO4 : moles=8.425e-35, volume=0
      CS2O : moles=1.08988e-15, volume=0
      CS2O2 : moles=9.57889e-31, volume=0
      CSO : moles=5.2738e-19, volume=0
      MO : moles=1.38023e-18, volume=0
      MO2 : moles=4.00563e-25, volume=0
      MO2O6 : moles=8.425e-35, volume=0
      MO3O9 : moles=8.425e-35, volume=0
      MO4O12 : moles=8.425e-35, volume=0
      MO5O15 : moles=8.425e-35, volume=0
      MOO : moles=2.52035e-25, volume=0
      MOO2 : moles=1.27392e-31, volume=0
      MOO3 : moles=8.425e-35, volume=0
      O : moles=2.90893e-24, volume=0
      O2 : moles=7.90824e-34, volume=0
      O3 : moles=8.425e-35, volume=0
      are : moles=0.0015165, volume=0
OpenCalphad attempt for 'matrix' with WARM-START

[OC input] ./OCinput_matrix.OCM
----------------------------------------
r u ./OCoutput_matrix.OCU

set ref o gas * 100000

set c t=1651
set c p=608000
set c n(o)=0.665555
set c n(pu)=0.0940517
set c n(u)=0.240394
c e
c w

save u ./OCoutput_matrix Y

l /out=./OCoutput_matrix.DAT r 1

fin
----------------------------------------

3A unfished preparations for XTDB


Open Calphad (OC) software version   6.106 , linked 2026-04-16
with command line monitor version  73

This program is available with a GNU General Public License.
either version 2 of the License, or any later version.
It includes the General Thermodynamic Package, version GTP-3.31,
Hillert's equilibrium calculation algorithm version HMS-3.0 ,
step/map/plot software version SMP-2.30 using GNUPLOT 5.2 graphics.
Numerical routines are extracted from LAPACK and BLAS and
the assessment procedure uses LMDIF from ANL.

Linked with OpenMp for parallel execution
 Warning, no environment variable OCHOME and no help file
 Working directory is: /home/ecappellari/transparant/sciantix-official/regression/test_JOG_MOX/point_05_r_1p5mm
--->OC6:
Read unformatted file: This is a save file for OC version:     OCF-3.20
Generated:  2026.04.19 21h33

 3E reading unformatted:        15024           0           0
3E Addition type   1, Inden-Hillert magn model for BCC_A2
3E Addition type   1, Inden-Hillert magn model for FCC_A1
 3E no experimental data
 3E no coefficient values saved
 3E Read assessment record
 No coefficients allocated
--->OC6:--->OC6:--->OC6:--->OC6:--->OC6:--->OC6:--->OC6:--->OC6:--->OC6:3Y Removed  1 gridpoints by merging
Gridmin:    7483 points   1.90E-02 s and      17 clockcycles, T= 1651.00
 3Y leaving global_gridmin
Phase change iteration:     5  -C1_MO2_AUTO#2
Equilibrium result:  18 its,  2.0864E-02 s,     21 cc, GS= -4.4402503E+05 J/mol
--->OC6:Equilibrium result:   9 its,  6.5100E-04 s,      1 cc, GS= -4.4402501E+05 J/mol
3Y Testing if any gridpoint is below the calculated equilibrium
--->OC6:--->OC6:
Overwriting previous results on ./OCoutput_matrix.OCU
3E allocating workspace:     122160          (   2160,   10000,    2)
 3E saving            3  symbols as texts
 3E used        12117  words out of       122160  for storing static data
 ceqrecsize not implemented          26
 3E Saving an equilibrium record requires     2854       0 words
 3E not storing unused equilibria from:            2
 3E Saving assessment record
 3E No experimental equilibrium range set
 3E allocating assessment head record          48
 3E no coefficients allocated
 3E no work array (assrec%wopt) allocated
Used    15059 words out of   122160,  12.33% for unformatted memory save
Written workspace      60236 bytes unformatted on ./OCoutput_matrix.OCU
--->OC6:--->OC6:Output on file: ./OCoutput_matrix.DAT
Output unit reset to screen:    6
--->OC6:--->OC6:
[OC output] ./OCoutput_matrix.DAT
----------------------------------------

%%%%%%%%%% OC output written: 2026-04-19  21h33

Output for equilibrium:   1, DEFAULT_EQUILIBRIUM          2026.04.19
Conditions .................................................:
  1:T=1651, 2:P=608000, 3:N(O)=0.665555, 4:N(PU)=.0940517, 5:N(U)=0.240394
 Degrees of freedom are   0

Some global data, reference state SER ......................:
T=   1651.00 K (  1377.85 C), P=  6.0800E+05 Pa, V=  0.0000E+00 m3
N=   1.0000E+00 moles, B=   9.0823E+01 g, RT=   1.3727E+04 J/mol
G= -4.44025E+05 J, G/N=-4.4402E+05 J/mol, H=-3.2224E+05 J, S= 7.376E+01 J/K

Some data for components ...................................:
Component name    Moles      Mole-fr  Chem.pot/RT  Activities  Ref.state
O                 6.6556E-01  0.66555 -1.6463E+01  7.0859E-08  GAS             
PU                9.4052E-02  0.09405 -3.7543E+01  4.9588E-17  SER (default)   
U                 2.4039E-01  0.24039 -3.7888E+01  3.5104E-17  SER (default)   

Some data for phases .......................................:
Name                Status Moles      Volume    Form.Units Cmp/FU dGm/RT  Comp:
C1_MO2#1................ E  1.000E+00  0.00E+00  3.34E-01    2.99  0.00E+00  X:
 O      6.65555E-01  U      2.40394E-01  PU     9.40516E-02


----------------------------------------

[OC parser] Parsed components
  O : moles=0.66556, x=0.66555, mu/RT=-16.463, activity=7.0859e-08, ref=GAS
  Pu : moles=0.094052, x=0.09405, mu/RT=-37.543, activity=4.9588e-17, ref=SER (default)
  U : moles=0.24039, x=0.24039, mu/RT=-37.888, activity=3.5104e-17, ref=SER (default)

[OC parser] Parsed phases
  Phase condensed : moles=1, volume=0
    Elements
      O = 0.665555
      Pu = 0.0940516
      U = 0.240394
    Species
      C1_MO2 : moles=1, volume=0
        O = 0.665555
        Pu = 0.0940516
        U = 0.240394
OpenCalphad attempt for 'at grain boundary' with WARM-START

[OC input] ./OCinput_fission_products.OCM
----------------------------------------
r u ./OCoutput_fission_products.OCU

set ref o gas * 100000

set c t=1651
set c p=608000
set c n(cs)=0.000112398
set c n(mo)=0.00039494
set c n(o)=0.999493
c e
set c n(o)=none
set c mu(o)=-451972

c w

save u ./OCoutput_fission_products Y

l /out=./OCoutput_fission_products.DAT r 1

fin
----------------------------------------

3A unfished preparations for XTDB


Open Calphad (OC) software version   6.106 , linked 2026-04-16
with command line monitor version  73

This program is available with a GNU General Public License.
either version 2 of the License, or any later version.
It includes the General Thermodynamic Package, version GTP-3.31,
Hillert's equilibrium calculation algorithm version HMS-3.0 ,
step/map/plot software version SMP-2.30 using GNUPLOT 5.2 graphics.
Numerical routines are extracted from LAPACK and BLAS and
the assessment procedure uses LMDIF from ANL.

Linked with OpenMp for parallel execution
 Warning, no environment variable OCHOME and no help file
 Working directory is: /home/ecappellari/transparant/sciantix-official/regression/test_JOG_MOX/point_05_r_1p5mm
--->OC6:
Read unformatted file: This is a save file for OC version:     OCF-3.20
Generated:  2026.04.19 21h33

 3E reading unformatted:        16646           0           0
3E Addition type   1, Inden-Hillert magn model for BCC_A2
3E Addition type   1, Inden-Hillert magn model for FCC_A1
3E Addition type   1, Inden-Hillert magn model for HCP_A3
 3E no experimental data
 3E no coefficient values saved
 3E Read assessment record
 No coefficients allocated
--->OC6:--->OC6:--->OC6:--->OC6:--->OC6:--->OC6:--->OC6:--->OC6:--->OC6:
Error codes:   4144     0    50
Message: Degrees of freedom not zero

--->OC6:--->OC6:--->OC6:--->OC6:Equilibrium result:  12 its,  1.7550E-03 s,      2 cc, GS= -5.8656614E+01 J/mol
3Y Testing if any gridpoint is below the calculated equilibrium
--->OC6:--->OC6:
Overwriting previous results on ./OCoutput_fission_products.OCU
3E allocating workspace:     123330          (   3330,   10000,    2)
 3E saving            3  symbols as texts
 3E used        12291  words out of       123330  for storing static data
 ceqrecsize not implemented          40
 3E Saving an equilibrium record requires     4302       0 words
 3E not storing unused equilibria from:            2
 3E Saving assessment record
 3E No experimental equilibrium range set
 3E allocating assessment head record          48
 3E no coefficients allocated
 3E no work array (assrec%wopt) allocated
Used    16681 words out of   123330,  13.53% for unformatted memory save
Written workspace      66724 bytes unformatted on ./OCoutput_fission_products.OCU
--->OC6:--->OC6:Output on file: ./OCoutput_fission_products.DAT
Output unit reset to screen:    6
--->OC6:--->OC6:
[OC output] ./OCoutput_fission_products.DAT
----------------------------------------

%%%%%%%%%% OC output written: 2026-04-19  21h33

Output for equilibrium:   1, DEFAULT_EQUILIBRIUM          2026.04.19
Conditions .................................................:
  1:T=1651, 2:P=608000, 3:N(CS)=.000112398, 4:N(MO)=.00039494, 5:MU(O)=
    -451972
 Degrees of freedom are   0

Some global data, reference state SER ......................:
T=   1651.00 K (  1377.85 C), P=  6.0800E+05 Pa, V=  2.4410E-06 m3
N=   5.0734E-04 moles, B=   5.2829E-02 g, RT=   1.3727E+04 J/mol
G= -5.86566E+01 J, G/N=-1.1562E+05 J/mol, H= 2.6762E+01 J, S= 5.174E-02 J/K

Some data for components ...................................:
Component name    Moles      Mole-fr  Chem.pot/RT  Activities  Ref.state
CS                1.1240E-04  0.22154 -1.6004E+01  1.1210E-07  SER (default)   
MO                3.9494E-04  0.77846 -6.2648E+00  1.9022E-03  SER (default)   
O                 4.0279E-15  0.00000 -3.2925E+01  5.0210E-15  GAS             

Some data for phases .......................................:
Name                Status Moles      Volume    Form.Units Cmp/FU dGm/RT  Comp:
GAS..................... E  1.114E-04  2.44E-06  1.08E-04    1.03  0.00E+00  X:
 CS     1.00000E+00  O      2.44161E-11  MO     1.41111E-14
Constitution: There are    18 constituents:
 CS           9.69145E-01  MOO          4.61907E-21  MO4O12       1.00000E-30
 CS2          3.08547E-02  MO2          4.22051E-21  MOO3         1.00000E-30
 CS2O         2.51587E-11  CS2O2        3.84511E-26  MO3O9        1.00000E-30
 MO           1.45465E-14  MOO2         4.05999E-27  MO2O6        1.00000E-30
 CSO          1.08488E-14  O2           2.52102E-29  O3           1.00000E-30
 O            5.33263E-20  CS2MOO4      1.09189E-30  MO5O15       1.00000E-30

BCC_A2_CHKD#2........... E  3.959E-04  0.00E+00  3.96E-04    1.00  0.00E+00  X:
 MO     9.97604E-01  CS     2.39616E-03  O      3.30066E-12


----------------------------------------

[OC parser] Parsed components
  Cs : moles=0.0001124, x=0.22154, mu/RT=-16.004, activity=1.121e-07, ref=SER (default)
  Mo : moles=0.00039494, x=0.77846, mu/RT=-6.2648, activity=0.0019022, ref=SER (default)
  O : moles=4.0279e-15, x=0, mu/RT=-32.925, activity=5.021e-15, ref=GAS

[OC parser] Parsed phases
  Phase condensed : moles=0.0003959, volume=0
    Elements
      Cs = 9.4864e-07
      Mo = 0.000394951
      O = 1.30673e-15
    Species
      BCC_A2 : moles=0.0003959, volume=0
        Cs = 9.4864e-07
        Mo = 0.000394951
        O = 1.30673e-15
  Phase gas : moles=0.0001114, volume=2.44e-06
    Elements
      Cs = 0.0001114
      Mo = 1.57198e-18
      O = 2.71995e-15
    Species
      CS : moles=0.000107963, volume=0
      CS2 : moles=3.43721e-06, volume=0
      CS2MOO4 : moles=1.21637e-34, volume=0
      CS2O : moles=2.80268e-15, volume=0
      CS2O2 : moles=4.28345e-30, volume=0
      CSO : moles=1.20856e-18, volume=0
      MO : moles=1.62048e-18, volume=0
      MO2 : moles=4.70165e-25, volume=0
      MO2O6 : moles=1.114e-34, volume=0
      MO3O9 : moles=1.114e-34, volume=0
      MO4O12 : moles=1.114e-34, volume=0
      MO5O15 : moles=1.114e-34, volume=0
      MOO : moles=5.14564e-25, volume=0
      MOO2 : moles=4.52283e-31, volume=0
      MOO3 : moles=1.114e-34, volume=0
      O : moles=5.94055e-24, volume=0
      O2 : moles=2.80842e-33, volume=0
      O3 : moles=1.114e-34, volume=0
      are : moles=0.0020052, volume=0
OpenCalphad attempt for 'matrix' with WARM-START

[OC input] ./OCinput_matrix.OCM
----------------------------------------
r u ./OCoutput_matrix.OCU

set ref o gas * 100000

set c t=1651
set c p=676000
set c n(o)=0.665837
set c n(pu)=0.0936674
set c n(u)=0.240496
c e
c w

save u ./OCoutput_matrix Y

l /out=./OCoutput_matrix.DAT r 1

fin
----------------------------------------

3A unfished preparations for XTDB


Open Calphad (OC) software version   6.106 , linked 2026-04-16
with command line monitor version  73

This program is available with a GNU General Public License.
either version 2 of the License, or any later version.
It includes the General Thermodynamic Package, version GTP-3.31,
Hillert's equilibrium calculation algorithm version HMS-3.0 ,
step/map/plot software version SMP-2.30 using GNUPLOT 5.2 graphics.
Numerical routines are extracted from LAPACK and BLAS and
the assessment procedure uses LMDIF from ANL.

Linked with OpenMp for parallel execution
 Warning, no environment variable OCHOME and no help file
 Working directory is: /home/ecappellari/transparant/sciantix-official/regression/test_JOG_MOX/point_05_r_1p5mm
--->OC6:
Read unformatted file: This is a save file for OC version:     OCF-3.20
Generated:  2026.04.19 21h33

 3E reading unformatted:        15024           0           0
3E Addition type   1, Inden-Hillert magn model for BCC_A2
3E Addition type   1, Inden-Hillert magn model for FCC_A1
 3E no experimental data
 3E no coefficient values saved
 3E Read assessment record
 No coefficients allocated
--->OC6:--->OC6:--->OC6:--->OC6:--->OC6:--->OC6:--->OC6:--->OC6:--->OC6:3Y Removed  1 gridpoints by merging
Gridmin:    7483 points   1.60E-02 s and      14 clockcycles, T= 1651.00
 3Y leaving global_gridmin
Phase change iteration:     5  -C1_MO2_AUTO#2
Equilibrium result:  18 its,  1.7425E-02 s,     18 cc, GS= -4.4399260E+05 J/mol
--->OC6:Equilibrium result:   9 its,  6.1000E-04 s,      1 cc, GS= -4.4399258E+05 J/mol
3Y Testing if any gridpoint is below the calculated equilibrium
--->OC6:--->OC6:
Overwriting previous results on ./OCoutput_matrix.OCU
3E allocating workspace:     122160          (   2160,   10000,    2)
 3E saving            3  symbols as texts
 3E used        12117  words out of       122160  for storing static data
 ceqrecsize not implemented          26
 3E Saving an equilibrium record requires     2854       0 words
 3E not storing unused equilibria from:            2
 3E Saving assessment record
 3E No experimental equilibrium range set
 3E allocating assessment head record          48
 3E no coefficients allocated
 3E no work array (assrec%wopt) allocated
Used    15059 words out of   122160,  12.33% for unformatted memory save
Written workspace      60236 bytes unformatted on ./OCoutput_matrix.OCU
--->OC6:--->OC6:Output on file: ./OCoutput_matrix.DAT
Output unit reset to screen:    6
--->OC6:--->OC6:
[OC output] ./OCoutput_matrix.DAT
----------------------------------------

%%%%%%%%%% OC output written: 2026-04-19  21h33

Output for equilibrium:   1, DEFAULT_EQUILIBRIUM          2026.04.19
Conditions .................................................:
  1:T=1651, 2:P=676000, 3:N(O)=0.665837, 4:N(PU)=.0936674, 5:N(U)=0.240496
 Degrees of freedom are   0

Some global data, reference state SER ......................:
T=   1651.00 K (  1377.85 C), P=  6.7600E+05 Pa, V=  0.0000E+00 m3
N=   1.0000E+00 moles, B=   9.0758E+01 g, RT=   1.3727E+04 J/mol
G= -4.43993E+05 J, G/N=-4.4399E+05 J/mol, H=-3.2231E+05 J, S= 7.370E+01 J/K

Some data for components ...................................:
Component name    Moles      Mole-fr  Chem.pot/RT  Activities  Ref.state
O                 6.6584E-01  0.66584 -1.6143E+01  9.7570E-08  GAS             
PU                9.3667E-02  0.09367 -3.8275E+01  2.3844E-17  SER (default)   
U                 2.4050E-01  0.24050 -3.8635E+01  1.6639E-17  SER (default)   

Some data for phases .......................................:
Name                Status Moles      Volume    Form.Units Cmp/FU dGm/RT  Comp:
C1_MO2#1................ E  1.000E+00  0.00E+00  3.34E-01    2.99  0.00E+00  X:
 O      6.65837E-01  U      2.40496E-01  PU     9.36674E-02


----------------------------------------

[OC parser] Parsed components
  O : moles=0.66584, x=0.66584, mu/RT=-16.143, activity=9.757e-08, ref=GAS
  Pu : moles=0.093667, x=0.09367, mu/RT=-38.275, activity=2.3844e-17, ref=SER (default)
  U : moles=0.2405, x=0.2405, mu/RT=-38.635, activity=1.6639e-17, ref=SER (default)

[OC parser] Parsed phases
  Phase condensed : moles=1, volume=0
    Elements
      O = 0.665837
      Pu = 0.0936674
      U = 0.240496
    Species
      C1_MO2 : moles=1, volume=0
        O = 0.665837
        Pu = 0.0936674
        U = 0.240496
OpenCalphad attempt for 'at grain boundary' with WARM-START

[OC input] ./OCinput_fission_products.OCM
----------------------------------------
r u ./OCoutput_fission_products.OCU

set ref o gas * 100000

set c t=1651
set c p=676000
set c n(cs)=0.000144689
set c n(mo)=0.000486705
set c n(o)=0.999369
c e
set c n(o)=none
set c mu(o)=-443187

c w

save u ./OCoutput_fission_products Y

l /out=./OCoutput_fission_products.DAT r 1

fin
----------------------------------------

3A unfished preparations for XTDB


Open Calphad (OC) software version   6.106 , linked 2026-04-16
with command line monitor version  73

This program is available with a GNU General Public License.
either version 2 of the License, or any later version.
It includes the General Thermodynamic Package, version GTP-3.31,
Hillert's equilibrium calculation algorithm version HMS-3.0 ,
step/map/plot software version SMP-2.30 using GNUPLOT 5.2 graphics.
Numerical routines are extracted from LAPACK and BLAS and
the assessment procedure uses LMDIF from ANL.

Linked with OpenMp for parallel execution
 Warning, no environment variable OCHOME and no help file
 Working directory is: /home/ecappellari/transparant/sciantix-official/regression/test_JOG_MOX/point_05_r_1p5mm
--->OC6:
Read unformatted file: This is a save file for OC version:     OCF-3.20
Generated:  2026.04.19 21h33

 3E reading unformatted:        16646           0           0
3E Addition type   1, Inden-Hillert magn model for BCC_A2
3E Addition type   1, Inden-Hillert magn model for FCC_A1
3E Addition type   1, Inden-Hillert magn model for HCP_A3
 3E no experimental data
 3E no coefficient values saved
 3E Read assessment record
 No coefficients allocated
--->OC6:--->OC6:--->OC6:--->OC6:--->OC6:--->OC6:--->OC6:--->OC6:--->OC6:
Error codes:   4144     0    50
Message: Degrees of freedom not zero

--->OC6:--->OC6:--->OC6:--->OC6:Equilibrium result:  10 its,  8.8800E-04 s,      1 cc, GS= -7.3439969E+01 J/mol
3Y Testing if any gridpoint is below the calculated equilibrium
--->OC6:--->OC6:
Overwriting previous results on ./OCoutput_fission_products.OCU
3E allocating workspace:     123330          (   3330,   10000,    2)
 3E saving            3  symbols as texts
 3E used        12291  words out of       123330  for storing static data
 ceqrecsize not implemented          40
 3E Saving an equilibrium record requires     4302       0 words
 3E not storing unused equilibria from:            2
 3E Saving assessment record
 3E No experimental equilibrium range set
 3E allocating assessment head record          48
 3E no coefficients allocated
 3E no work array (assrec%wopt) allocated
Used    16681 words out of   123330,  13.53% for unformatted memory save
Written workspace      66724 bytes unformatted on ./OCoutput_fission_products.OCU
--->OC6:--->OC6:Output on file: ./OCoutput_fission_products.DAT
Output unit reset to screen:    6
--->OC6:--->OC6:
[OC output] ./OCoutput_fission_products.DAT
----------------------------------------

%%%%%%%%%% OC output written: 2026-04-19  21h33

Output for equilibrium:   1, DEFAULT_EQUILIBRIUM          2026.04.19
Conditions .................................................:
  1:T=1651, 2:P=676000, 3:N(CS)=.000144689, 4:N(MO)=.000486705, 5:MU(O)=
    -443187
 Degrees of freedom are   0

Some global data, reference state SER ......................:
T=   1651.00 K (  1377.85 C), P=  6.7600E+05 Pa, V=  2.8158E-06 m3
N=   6.3139E-04 moles, B=   6.5925E-02 g, RT=   1.3727E+04 J/mol
G= -7.34400E+01 J, G/N=-1.1631E+05 J/mol, H= 3.3594E+01 J, S= 6.483E-02 J/K

Some data for components ...................................:
Component name    Moles      Mole-fr  Chem.pot/RT  Activities  Ref.state
CS                1.4469E-04  0.22916 -1.5901E+01  1.2423E-07  SER (default)   
MO                4.8670E-04  0.77084 -6.2650E+00  1.9017E-03  SER (default)   
O                 9.3185E-15  0.00000 -3.2285E+01  9.5219E-15  GAS             

Some data for phases .......................................:
Name                Status Moles      Volume    Form.Units Cmp/FU dGm/RT  Comp:
GAS..................... E  1.434E-04  2.82E-06  1.39E-04    1.03  0.00E+00  X:
 CS     1.00000E+00  O      5.37538E-11  MO     1.26488E-14
Constitution: There are    18 constituents:
 CS           9.65922E-01  MOO          8.30529E-21  MO4O12       1.00000E-30
 CS2          3.40778E-02  MO2          3.79398E-21  MOO3         1.00000E-30
 CS2O         5.55639E-11  CS2O2        1.69813E-25  MO3O9        1.00000E-30
 CSO          2.16217E-14  MOO2         1.45976E-26  MO2O6        1.00000E-30
 MO           1.30798E-14  O2           9.06660E-29  O3           1.00000E-30
 O            9.59079E-20  CS2MOO4      1.92770E-29  MO5O15       1.00000E-30

BCC_A2_CHKD#2........... E  4.880E-04  0.00E+00  4.88E-04    1.00  0.00E+00  X:
 MO     9.97340E-01  CS     2.66040E-03  O      3.30066E-12


----------------------------------------

[OC parser] Parsed components
  Cs : moles=0.00014469, x=0.22916, mu/RT=-15.901, activity=1.2423e-07, ref=SER (default)
  Mo : moles=0.0004867, x=0.77084, mu/RT=-6.265, activity=0.0019017, ref=SER (default)
  O : moles=9.3185e-15, x=0, mu/RT=-32.285, activity=9.5219e-15, ref=GAS

[OC parser] Parsed phases
  Phase condensed : moles=0.000488, volume=0
    Elements
      Cs = 1.29828e-06
      Mo = 0.000486702
      O = 1.61072e-15
    Species
      BCC_A2 : moles=0.000488, volume=0
        Cs = 1.29828e-06
        Mo = 0.000486702
        O = 1.61072e-15
  Phase gas : moles=0.0001434, volume=2.82e-06
    Elements
      Cs = 0.0001434
      Mo = 1.81384e-18
      O = 7.70829e-15
    Species
      CS : moles=0.000138513, volume=0
      CS2 : moles=4.88676e-06, volume=0
      CS2MOO4 : moles=2.76432e-33, volume=0
      CS2O : moles=7.96786e-15, volume=0
      CS2O2 : moles=2.43512e-29, volume=0
      CSO : moles=3.10055e-18, volume=0
      MO : moles=1.87564e-18, volume=0
      MO2 : moles=5.44057e-25, volume=0
      MO2O6 : moles=1.434e-34, volume=0
      MO3O9 : moles=1.434e-34, volume=0
      MO4O12 : moles=1.434e-34, volume=0
      MO5O15 : moles=1.434e-34, volume=0
      MOO : moles=1.19098e-24, volume=0
      MOO2 : moles=2.0933e-30, volume=0
      MOO3 : moles=1.434e-34, volume=0
      O : moles=1.37532e-23, volume=0
      O2 : moles=1.30015e-32, volume=0
      O3 : moles=1.434e-34, volume=0
      are : moles=0.0025812, volume=0
OpenCalphad attempt for 'matrix' with WARM-START

[OC input] ./OCinput_matrix.OCM
----------------------------------------
r u ./OCoutput_matrix.OCU

set ref o gas * 100000

set c t=1651
set c p=744000
set c n(o)=0.66612
set c n(pu)=0.0932827
set c n(u)=0.240598
c e
c w

save u ./OCoutput_matrix Y

l /out=./OCoutput_matrix.DAT r 1

fin
----------------------------------------

3A unfished preparations for XTDB


Open Calphad (OC) software version   6.106 , linked 2026-04-16
with command line monitor version  73

This program is available with a GNU General Public License.
either version 2 of the License, or any later version.
It includes the General Thermodynamic Package, version GTP-3.31,
Hillert's equilibrium calculation algorithm version HMS-3.0 ,
[...]
 3E Saving assessment record
 3E No experimental equilibrium range set
 3E allocating assessment head record          48
 3E no coefficients allocated
 3E no work array (assrec%wopt) allocated
Used    15305 words out of   122160,  12.53% for unformatted memory save
Written workspace      61220 bytes unformatted on ./OCoutput_matrix.OCU
--->OC6:--->OC6:Output on file: ./OCoutput_matrix.DAT
Output unit reset to screen:    6
--->OC6:--->OC6:
[OC output] ./OCoutput_matrix.DAT
----------------------------------------

%%%%%%%%%% OC output written: 2026-04-19  21h33

Output for equilibrium:   1, DEFAULT_EQUILIBRIUM          2026.04.19
Conditions .................................................:
  1:T=1651, 2:P=7000000, 3:N(O)=0.693186, 4:N(PU)=.05644, 5:N(U)=0.250374
 Degrees of freedom are   0

Some global data, reference state SER ......................:
T=   1651.00 K (  1377.85 C), P=  7.0000E+06 Pa, V=  0.0000E+00 m3
N=   1.0000E+00 moles, B=   8.4462E+01 g, RT=   1.3727E+04 J/mol
G= -4.27869E+05 J, G/N=-4.2787E+05 J/mol, H=-3.0846E+05 J, S= 7.233E+01 J/K

Some data for components ...................................:
Component name    Moles      Mole-fr  Chem.pot/RT  Activities  Ref.state
O                 6.9319E-01  0.69319 -3.6229E+00  2.6706E-02  GAS             
PU                5.6440E-02  0.05644 -6.5372E+01  4.0680E-29  SER (default)   
U                 2.5037E-01  0.25037 -6.6707E+01  1.0707E-29  SER (default)   

Some data for phases .......................................:
Name                Status Moles      Volume    Form.Units Cmp/FU dGm/RT  Comp:
C1_MO2#1................ E  7.997E-01  0.00E+00  2.52E-01    3.17  0.00E+00  X:
 O      6.84648E-01  U      2.44775E-01  PU     7.05778E-02

U3O8_S4................. E  2.003E-01  0.00E+00  1.82E-02   11.00  0.00E+00  X:
 O      7.27273E-01  U      2.72727E-01  PU     0.00000E+00


----------------------------------------

[OC parser] Parsed components
  O : moles=0.69319, x=0.69319, mu/RT=-3.6229, activity=0.026706, ref=GAS
  Pu : moles=0.05644, x=0.05644, mu/RT=-65.372, activity=4.068e-29, ref=SER (default)
  U : moles=0.25037, x=0.25037, mu/RT=-66.707, activity=1.0707e-29, ref=SER (default)

[OC parser] Parsed phases
  Phase condensed : moles=1, volume=0
    Elements
      O = 0.693186
      Pu = 0.0564411
      U = 0.250374
    Species
      C1_MO2 : moles=0.7997, volume=0
        O = 0.547513
        Pu = 0.0564411
        U = 0.195747
      U3O8_S4 : moles=0.2003, volume=0
        O = 0.145673
        Pu = 0
        U = 0.0546272
OpenCalphad attempt for 'at grain boundary' with WARM-START

[OC input] ./OCinput_fission_products.OCM
----------------------------------------
r u ./OCoutput_fission_products.OCU

set ref o gas * 100000

set c t=1651
set c p=7e+06
set c n(cs)=0.00906419
set c n(mo)=0.0127386
set c n(o)=0.978197
c e
set c n(o)=none
set c mu(o)=-99462.4

c w

save u ./OCoutput_fission_products Y

l /out=./OCoutput_fission_products.DAT r 1

fin
----------------------------------------

3A unfished preparations for XTDB


Open Calphad (OC) software version   6.106 , linked 2026-04-16
with command line monitor version  73

This program is available with a GNU General Public License.
either version 2 of the License, or any later version.
It includes the General Thermodynamic Package, version GTP-3.31,
Hillert's equilibrium calculation algorithm version HMS-3.0 ,
step/map/plot software version SMP-2.30 using GNUPLOT 5.2 graphics.
Numerical routines are extracted from LAPACK and BLAS and
the assessment procedure uses LMDIF from ANL.

Linked with OpenMp for parallel execution
 Warning, no environment variable OCHOME and no help file
 Working directory is: /home/ecappellari/transparant/sciantix-official/regression/test_JOG_MOX/point_05_r_1p5mm
--->OC6:
Read unformatted file: This is a save file for OC version:     OCF-3.20
Generated:  2026.04.19 21h33

 3E reading unformatted:        16646           0           0
3E Addition type   1, Inden-Hillert magn model for BCC_A2
3E Addition type   1, Inden-Hillert magn model for FCC_A1
3E Addition type   1, Inden-Hillert magn model for HCP_A3
 3E no experimental data
 3E no coefficient values saved
 3E Read assessment record
 No coefficients allocated
--->OC6:--->OC6:--->OC6:--->OC6:--->OC6:--->OC6:--->OC6:--->OC6:--->OC6:
Error codes:   4144     0    50
Message: Degrees of freedom not zero

--->OC6:--->OC6:--->OC6:--->OC6:Equilibrium result:  33 its,  2.9450E-03 s,      3 cc, GS= -1.8988655E+04 J/mol
3Y Testing if any gridpoint is below the calculated equilibrium
--->OC6:--->OC6:
Overwriting previous results on ./OCoutput_fission_products.OCU
3E allocating workspace:     123330          (   3330,   10000,    2)
 3E saving            3  symbols as texts
 3E used        12291  words out of       123330  for storing static data
 ceqrecsize not implemented          40
 3E Saving an equilibrium record requires     4302       0 words
 3E not storing unused equilibria from:            2
 3E Saving assessment record
 3E No experimental equilibrium range set
 3E allocating assessment head record          48
 3E no coefficients allocated
 3E no work array (assrec%wopt) allocated
Used    16681 words out of   123330,  13.53% for unformatted memory save
Written workspace      66724 bytes unformatted on ./OCoutput_fission_products.OCU
--->OC6:--->OC6:Output on file: ./OCoutput_fission_products.DAT
Output unit reset to screen:    6
--->OC6:--->OC6:
[OC output] ./OCoutput_fission_products.DAT
----------------------------------------

%%%%%%%%%% OC output written: 2026-04-19  21h33

Output for equilibrium:   1, DEFAULT_EQUILIBRIUM          2026.04.19
Conditions .................................................:
  1:T=1651, 2:P=7000000, 3:N(CS)=.00906419, 4:N(MO)=.0127386, 5:MU(O)=
    -99462.4
 Degrees of freedom are   0

Some global data, reference state SER ......................:
T=   1651.00 K (  1377.85 C), P=  7.0000E+06 Pa, V=  0.0000E+00 m3
N=   6.4551E-02 moles, B=   3.1108E+00 g, RT=   1.3727E+04 J/mol
G= -1.89887E+04 J, G/N=-2.9417E+05 J/mol, H=-1.0349E+04 J, S= 5.233E+00 J/K

Some data for components ...................................:
Component name    Moles      Mole-fr  Chem.pot/RT  Activities  Ref.state
CS                9.0642E-03  0.14042 -3.3697E+01  2.3210E-15  SER (default)   
MO                1.2739E-02  0.19734 -2.0278E+01  1.5616E-09  SER (default)   
O                 4.2748E-02  0.66224 -7.2456E+00  7.1330E-04  GAS             

Some data for phases .......................................:
Name                Status Moles      Volume    Form.Units Cmp/FU dGm/RT  Comp:
LIQUID#1................ E  6.455E-02  0.00E+00  1.27E-02    5.07  0.00E+00  X:
 O      6.62238E-01  MO     1.97342E-01  CS     1.40420E-01


----------------------------------------

[OC parser] Parsed components
  Cs : moles=0.0090642, x=0.14042, mu/RT=-33.697, activity=2.321e-15, ref=SER (default)
  Mo : moles=0.012739, x=0.19734, mu/RT=-20.278, activity=1.5616e-09, ref=SER (default)
  O : moles=0.042748, x=0.66224, mu/RT=-7.2456, activity=0.0007133, ref=GAS

[OC parser] Parsed phases
  Phase liquid : moles=0.06455, volume=0
    Elements
      Cs = 0.00906411
      Mo = 0.0127384
      O = 0.0427475
OpenCalphad attempt for 'matrix' with WARM-START

[OC input] ./OCinput_matrix.OCM
----------------------------------------
r u ./OCoutput_matrix.OCU

set ref o gas * 100000

set c t=1651
set c p=7e+06
set c n(o)=0.693186
set c n(pu)=0.05644
set c n(u)=0.250374
c e
c w

save u ./OCoutput_matrix Y

l /out=./OCoutput_matrix.DAT r 1

fin
----------------------------------------

3A unfished preparations for XTDB


Open Calphad (OC) software version   6.106 , linked 2026-04-16
with command line monitor version  73

This program is available with a GNU General Public License.
either version 2 of the License, or any later version.
It includes the General Thermodynamic Package, version GTP-3.31,
Hillert's equilibrium calculation algorithm version HMS-3.0 ,
step/map/plot software version SMP-2.30 using GNUPLOT 5.2 graphics.
Numerical routines are extracted from LAPACK and BLAS and
the assessment procedure uses LMDIF from ANL.

Linked with OpenMp for parallel execution
 Warning, no environment variable OCHOME and no help file
 Working directory is: /home/ecappellari/transparant/sciantix-official/regression/test_JOG_MOX/point_05_r_1p5mm
--->OC6:
Read unformatted file: This is a save file for OC version:     OCF-3.20
Generated:  2026.04.19 21h33

 3E reading unformatted:        15270           0           0
3E Addition type   1, Inden-Hillert magn model for BCC_A2
3E Addition type   1, Inden-Hillert magn model for FCC_A1
 3E no experimental data
 3E no coefficient values saved
 3E Read assessment record
 No coefficients allocated
--->OC6:--->OC6:--->OC6:--->OC6:--->OC6:--->OC6:--->OC6:--->OC6:--->OC6:Gridmin:    7483 points   1.63E-02 s and      16 clockcycles, T= 1651.00
 3Y leaving global_gridmin
Phase change iteration:     4  -C1_MO2_AUTO#2
Equilibrium result:  25 its,  1.8576E-02 s,     19 cc, GS= -4.2786921E+05 J/mol
--->OC6:Equilibrium result:   9 its,  7.2400E-04 s,      1 cc, GS= -4.2786921E+05 J/mol
3Y Testing if any gridpoint is below the calculated equilibrium
--->OC6:--->OC6:
Overwriting previous results on ./OCoutput_matrix.OCU
3E allocating workspace:     122160          (   2160,   10000,    2)
 3E saving            3  symbols as texts
 3E used        12122  words out of       122160  for storing static data
 ceqrecsize not implemented          27
 3E Saving an equilibrium record requires     3095       0 words
 3E not storing unused equilibria from:            2
 3E Saving assessment record
 3E No experimental equilibrium range set
 3E allocating assessment head record          48
 3E no coefficients allocated
 3E no work array (assrec%wopt) allocated
Used    15305 words out of   122160,  12.53% for unformatted memory save
Written workspace      61220 bytes unformatted on ./OCoutput_matrix.OCU
--->OC6:--->OC6:Output on file: ./OCoutput_matrix.DAT
Output unit reset to screen:    6
--->OC6:--->OC6:
[OC output] ./OCoutput_matrix.DAT
----------------------------------------

%%%%%%%%%% OC output written: 2026-04-19  21h33

Output for equilibrium:   1, DEFAULT_EQUILIBRIUM          2026.04.19
Conditions .................................................:
  1:T=1651, 2:P=7000000, 3:N(O)=0.693186, 4:N(PU)=.05644, 5:N(U)=0.250374
 Degrees of freedom are   0

Some global data, reference state SER ......................:
T=   1651.00 K (  1377.85 C), P=  7.0000E+06 Pa, V=  0.0000E+00 m3
N=   1.0000E+00 moles, B=   8.4462E+01 g, RT=   1.3727E+04 J/mol
G= -4.27869E+05 J, G/N=-4.2787E+05 J/mol, H=-3.0846E+05 J, S= 7.233E+01 J/K

Some data for components ...................................:
Component name    Moles      Mole-fr  Chem.pot/RT  Activities  Ref.state
O                 6.9319E-01  0.69319 -3.6229E+00  2.6706E-02  GAS             
PU                5.6440E-02  0.05644 -6.5372E+01  4.0680E-29  SER (default)   
U                 2.5037E-01  0.25037 -6.6707E+01  1.0707E-29  SER (default)   

Some data for phases .......................................:
Name                Status Moles      Volume    Form.Units Cmp/FU dGm/RT  Comp:
C1_MO2#1................ E  7.997E-01  0.00E+00  2.52E-01    3.17  0.00E+00  X:
 O      6.84648E-01  U      2.44775E-01  PU     7.05778E-02

U3O8_S4................. E  2.003E-01  0.00E+00  1.82E-02   11.00  0.00E+00  X:
 O      7.27273E-01  U      2.72727E-01  PU     0.00000E+00


----------------------------------------

[OC parser] Parsed components
  O : moles=0.69319, x=0.69319, mu/RT=-3.6229, activity=0.026706, ref=GAS
  Pu : moles=0.05644, x=0.05644, mu/RT=-65.372, activity=4.068e-29, ref=SER (default)
  U : moles=0.25037, x=0.25037, mu/RT=-66.707, activity=1.0707e-29, ref=SER (default)

[OC parser] Parsed phases
  Phase condensed : moles=1, volume=0
    Elements
      O = 0.693186
      Pu = 0.0564411
      U = 0.250374
    Species
      C1_MO2 : moles=0.7997, volume=0
        O = 0.547513
        Pu = 0.0564411
        U = 0.195747
      U3O8_S4 : moles=0.2003, volume=0
        O = 0.145673
        Pu = 0
        U = 0.0546272
OpenCalphad attempt for 'at grain boundary' with WARM-START

[OC input] ./OCinput_fission_products.OCM
----------------------------------------
r u ./OCoutput_fission_products.OCU

set ref o gas * 100000

set c t=1651
set c p=7e+06
set c n(cs)=0.00906419
set c n(mo)=0.0127386
set c n(o)=0.978197
c e
set c n(o)=none
set c mu(o)=-99462.4

c w

save u ./OCoutput_fission_products Y

l /out=./OCoutput_fission_products.DAT r 1

fin
----------------------------------------

3A unfished preparations for XTDB


Open Calphad (OC) software version   6.106 , linked 2026-04-16
with command line monitor version  73

This program is available with a GNU General Public License.
either version 2 of the License, or any later version.
It includes the General Thermodynamic Package, version GTP-3.31,
Hillert's equilibrium calculation algorithm version HMS-3.0 ,
step/map/plot software version SMP-2.30 using GNUPLOT 5.2 graphics.
Numerical routines are extracted from LAPACK and BLAS and
the assessment procedure uses LMDIF from ANL.

Linked with OpenMp for parallel execution
 Warning, no environment variable OCHOME and no help file
 Working directory is: /home/ecappellari/transparant/sciantix-official/regression/test_JOG_MOX/point_05_r_1p5mm
--->OC6:
Read unformatted file: This is a save file for OC version:     OCF-3.20
Generated:  2026.04.19 21h33

 3E reading unformatted:        16646           0           0
3E Addition type   1, Inden-Hillert magn model for BCC_A2
3E Addition type   1, Inden-Hillert magn model for FCC_A1
3E Addition type   1, Inden-Hillert magn model for HCP_A3
 3E no experimental data
 3E no coefficient values saved
 3E Read assessment record
 No coefficients allocated
--->OC6:--->OC6:--->OC6:--->OC6:--->OC6:--->OC6:--->OC6:--->OC6:--->OC6:
Error codes:   4144     0    50
Message: Degrees of freedom not zero

--->OC6:--->OC6:--->OC6:--->OC6:Equilibrium result:  32 its,  2.2400E-03 s,      2 cc, GS= -1.8988659E+04 J/mol
3Y Testing if any gridpoint is below the calculated equilibrium
--->OC6:--->OC6:
Overwriting previous results on ./OCoutput_fission_products.OCU
3E allocating workspace:     123330          (   3330,   10000,    2)
 3E saving            3  symbols as texts
 3E used        12291  words out of       123330  for storing static data
 ceqrecsize not implemented          40
 3E Saving an equilibrium record requires     4302       0 words
 3E not storing unused equilibria from:            2
 3E Saving assessment record
 3E No experimental equilibrium range set
 3E allocating assessment head record          48
 3E no coefficients allocated
 3E no work array (assrec%wopt) allocated
Used    16681 words out of   123330,  13.53% for unformatted memory save
Written workspace      66724 bytes unformatted on ./OCoutput_fission_products.OCU
--->OC6:--->OC6:Output on file: ./OCoutput_fission_products.DAT
Output unit reset to screen:    6
--->OC6:--->OC6:
[OC output] ./OCoutput_fission_products.DAT
----------------------------------------

%%%%%%%%%% OC output written: 2026-04-19  21h33

Output for equilibrium:   1, DEFAULT_EQUILIBRIUM          2026.04.19
Conditions .................................................:
  1:T=1651, 2:P=7000000, 3:N(CS)=.00906419, 4:N(MO)=.0127386, 5:MU(O)=
    -99462.4
 Degrees of freedom are   0

Some global data, reference state SER ......................:
T=   1651.00 K (  1377.85 C), P=  7.0000E+06 Pa, V=  0.0000E+00 m3
N=   6.4551E-02 moles, B=   3.1108E+00 g, RT=   1.3727E+04 J/mol
G= -1.89887E+04 J, G/N=-2.9417E+05 J/mol, H=-1.0349E+04 J, S= 5.233E+00 J/K

Some data for components ...................................:
Component name    Moles      Mole-fr  Chem.pot/RT  Activities  Ref.state
CS                9.0642E-03  0.14042 -3.3697E+01  2.3210E-15  SER (default)   
MO                1.2739E-02  0.19734 -2.0278E+01  1.5616E-09  SER (default)   
O                 4.2748E-02  0.66224 -7.2456E+00  7.1330E-04  GAS             

Some data for phases .......................................:
Name                Status Moles      Volume    Form.Units Cmp/FU dGm/RT  Comp:
LIQUID#1................ E  6.455E-02  0.00E+00  1.27E-02    5.07  0.00E+00  X:
 O      6.62238E-01  MO     1.97342E-01  CS     1.40420E-01


----------------------------------------

[OC parser] Parsed components
  Cs : moles=0.0090642, x=0.14042, mu/RT=-33.697, activity=2.321e-15, ref=SER (default)
  Mo : moles=0.012739, x=0.19734, mu/RT=-20.278, activity=1.5616e-09, ref=SER (default)
  O : moles=0.042748, x=0.66224, mu/RT=-7.2456, activity=0.0007133, ref=GAS

[OC parser] Parsed phases
  Phase liquid : moles=0.06455, volume=0
    Elements
      Cs = 0.00906411
      Mo = 0.0127384
      O = 0.0427475
Using current directory.
STOP Au revoir
STOP Au revoir
STOP Au revoir
STOP Au revoir
STOP Au revoir
STOP Au revoir
STOP Au revoir
STOP Au revoir
STOP Au revoir
STOP Au revoir
STOP Au revoir
STOP Au revoir
STOP Au revoir
STOP Au revoir
STOP Au revoir
STOP Au revoir
STOP Au revoir
STOP Au revoir
STOP Au revoir
STOP Au revoir
STOP Au revoir
STOP Au revoir
STOP Au revoir
STOP Au revoir
STOP Au revoir
STOP Au revoir
STOP Au revoir
STOP Au revoir
STOP Au revoir
STOP Au revoir
STOP Au revoir
STOP Au revoir
STOP Au revoir
STOP Au revoir
STOP Au revoir
STOP Au revoir
STOP Au revoir
STOP Au revoir
STOP Au revoir
STOP Au revoir
STOP Au revoir
STOP Au revoir
STOP Au revoir
STOP Au revoir
STOP Au revoir
STOP Au revoir
STOP Au revoir
STOP Au revoir
STOP Au revoir
STOP Au revoir
STOP Au revoir
STOP Au revoir
STOP Au revoir
STOP Au revoir
STOP Au revoir
STOP Au revoir
STOP Au revoir
STOP Au revoir
STOP Au revoir
STOP Au revoir
STOP Au revoir
STOP Au revoir
STOP Au revoir
STOP Au revoir
STOP Au revoir
STOP Au revoir
STOP Au revoir
STOP Au revoir
STOP Au revoir
STOP Au revoir
STOP Au revoir
STOP Au revoir
STOP Au revoir
STOP Au revoir
STOP Au revoir
STOP Au revoir
STOP Au revoir
STOP Au revoir
STOP Au revoir
STOP Au revoir
STOP Au revoir
STOP Au revoir
STOP Au revoir
STOP Au revoir
STOP Au revoir
STOP Au revoir
STOP Au revoir
STOP Au revoir
STOP Au revoir
STOP Au revoir
STOP Au revoir
STOP Au revoir
STOP Au revoir
STOP Au revoir
STOP Au revoir
STOP Au revoir
STOP Au revoir
STOP Au revoir
STOP Au revoir
STOP Au revoir
STOP Au revoir
STOP Au revoir
STOP Au revoir
STOP Au revoir
STOP Au revoir
STOP Au revoir
STOP Au revoir
STOP Au revoir
STOP Au revoir
STOP Au revoir
STOP Au revoir
STOP Au revoir
STOP Au revoir
STOP Au revoir
STOP Au revoir
STOP Au revoir
STOP Au revoir
STOP Au revoir
STOP Au revoir
STOP Au revoir
STOP Au revoir
STOP Au revoir
STOP Au revoir
STOP Au revoir
STOP Au revoir
STOP Au revoir
STOP Au revoir
STOP Au revoir
STOP Au revoir
STOP Au revoir
STOP Au revoir
STOP Au revoir
STOP Au revoir
STOP Au revoir
STOP Au revoir
STOP Au revoir
STOP Au revoir
STOP Au revoir
STOP Au revoir
STOP Au revoir
STOP Au revoir
STOP Au revoir
STOP Au revoir
STOP Au revoir
STOP Au revoir
STOP Au revoir
STOP Au revoir
STOP Au revoir
STOP Au revoir
STOP Au revoir
STOP Au revoir
STOP Au revoir
STOP Au revoir
STOP Au revoir
STOP Au revoir
STOP Au revoir
STOP Au revoir
STOP Au revoir
STOP Au revoir
STOP Au revoir
STOP Au revoir
STOP Au revoir
STOP Au revoir
STOP Au revoir
STOP Au revoir
STOP Au revoir
STOP Au revoir
STOP Au revoir
STOP Au revoir
STOP Au revoir
STOP Au revoir
STOP Au revoir
STOP Au revoir
STOP Au revoir
STOP Au revoir
STOP Au revoir
STOP Au revoir
STOP Au revoir
STOP Au revoir
STOP Au revoir
STOP Au revoir
STOP Au revoir
STOP Au revoir
STOP Au revoir
STOP Au revoir
STOP Au revoir
STOP Au revoir
STOP Au revoir
STOP Au revoir
STOP Au revoir
STOP Au revoir
STOP Au revoir
STOP Au revoir
STOP Au revoir
STOP Au revoir
STOP Au revoir
STOP Au revoir
STOP Au revoir
STOP Au revoir
STOP Au revoir
STOP Au revoir
STOP Au revoir
STOP Au revoir
STOP Au revoir
STOP Au revoir
STOP Au revoir
